<?xml version="1.0" encoding="UTF-8"?>

<!-- generated on 2025-03-22 00:48:41 by Eclipse SUMO GUI Version 1.20.0
<configuration xmlns:xsi="http://www.w3.org/2001/XMLSchema-instance" xsi:noNamespaceSchemaLocation="http://sumo.dlr.de/xsd/sumoConfiguration.xsd">

    <input>
        <net-file value="C:\Users\athar\OneDrive\Documents\Sapan&apos;s Project\SUMO\config\../data/network/trafalgar.net.xml"/>
        <route-files value="C:\Users\athar\OneDrive\Documents\Sapan&apos;s Project\SUMO\config\../scenarios/rain/vehicles.rou.xml,C:\Users\athar\OneDrive\Documents\Sapan&apos;s Project\SUMO\config\../scenarios/rain/pedestrians.rou.xml"/>
    </input>

    <output>
        <emission-output value="C:\Users\athar\OneDrive\Documents\Sapan&apos;s Project\SUMO\config\../output/rain/emissions.xml"/>
        <tripinfo-output value="C:\Users\athar\OneDrive\Documents\Sapan&apos;s Project\SUMO\config\../output/rain/tripinfo.xml"/>
    </output>

    <time>
        <begin value="0"/>
        <end value="3600"/>
    </time>

</configuration>
-->

<tripinfos xmlns:xsi="http://www.w3.org/2001/XMLSchema-instance" xsi:noNamespaceSchemaLocation="http://sumo.dlr.de/xsd/tripinfo_file.xsd">
    <tripinfo id="70.0" depart="0.00" departLane="267215482#0_1" departPos="2.30" departSpeed="0.00" departDelay="0.00" arrival="4.00" arrivalLane="267215482#1_1" arrivalPos="12.03" arrivalSpeed="7.19" duration="4.00" routeLength="17.24" waitingTime="0.00" waitingCount="0" stopTime="0.00" timeLoss="1.69" rerouteNo="0" devices="tripinfo_70.0 emissions_70.0" vType="DEFAULT_VEHTYPE" speedFactor="0.90" vaporized="">
        <emissions CO_abs="518.818447" CO2_abs="17516.063520" HC_abs="2.774248" PMx_abs="0.359344" NOx_abs="7.622753" fuel_abs="5586.910678" electricity_abs="0"/>
    </tripinfo>
    <tripinfo id="77.0" depart="0.00" departLane="-498958807#2_1" departPos="5.10" departSpeed="0.00" departDelay="0.00" arrival="4.00" arrivalLane="195406732#0_1" arrivalPos="0.20" arrivalSpeed="8.36" duration="4.00" routeLength="16.08" waitingTime="0.00" waitingCount="0" stopTime="0.00" timeLoss="1.56" rerouteNo="0" devices="tripinfo_77.0 emissions_77.0" vType="DEFAULT_VEHTYPE" speedFactor="1.10" vaporized="">
        <emissions CO_abs="526.180834" CO2_abs="20211.253593" HC_abs="2.873496" PMx_abs="0.415354" NOx_abs="8.800166" fuel_abs="6446.519697" electricity_abs="0"/>
    </tripinfo>
    <tripinfo id="55.0" depart="0.00" departLane="483872217#2_1" departPos="0.13" departSpeed="0.00" departDelay="0.00" arrival="5.00" arrivalLane="230503369#1_1" arrivalPos="3.73" arrivalSpeed="8.75" duration="5.00" routeLength="20.12" waitingTime="0.00" waitingCount="0" stopTime="0.00" timeLoss="1.67" rerouteNo="0" devices="tripinfo_55.0 emissions_55.0" vType="DEFAULT_VEHTYPE" speedFactor="0.99" vaporized="">
        <emissions CO_abs="608.948909" CO2_abs="23012.277897" HC_abs="3.313899" PMx_abs="0.459987" NOx_abs="9.927251" fuel_abs="7339.947455" electricity_abs="0"/>
    </tripinfo>
    <tripinfo id="93.0" depart="0.00" departLane="483872217#0_1" departPos="5.10" departSpeed="0.00" departDelay="0.00" arrival="6.00" arrivalLane="230503369#0_1" arrivalPos="0.20" arrivalSpeed="7.09" duration="6.00" routeLength="22.03" waitingTime="0.00" waitingCount="0" stopTime="0.00" timeLoss="2.88" rerouteNo="0" devices="tripinfo_93.0 emissions_93.0" vType="DEFAULT_VEHTYPE" speedFactor="1.08" vaporized="">
        <emissions CO_abs="660.475625" CO2_abs="20299.393359" HC_abs="3.483739" PMx_abs="0.420853" NOx_abs="8.863927" fuel_abs="6474.711996" electricity_abs="0"/>
    </tripinfo>
    <tripinfo id="27.0" depart="0.00" departLane="43118738#0_1" departPos="0.20" departSpeed="0.00" departDelay="0.00" arrival="8.00" arrivalLane="43118733#0_1" arrivalPos="0.50" arrivalSpeed="8.77" duration="8.00" routeLength="52.31" waitingTime="0.00" waitingCount="0" stopTime="0.00" timeLoss="2.12" rerouteNo="0" devices="tripinfo_27.0 emissions_27.0" vType="DEFAULT_VEHTYPE" speedFactor="1.12" vaporized="">
        <emissions CO_abs="688.169647" CO2_abs="30652.329463" HC_abs="3.849582" PMx_abs="0.565327" NOx_abs="12.870542" fuel_abs="9776.781369" electricity_abs="0"/>
    </tripinfo>
    <tripinfo id="33.0" depart="0.00" departLane="230503369#2_1" departPos="5.10" departSpeed="0.00" departDelay="0.00" arrival="12.00" arrivalLane="-230503369#0_1" arrivalPos="0.20" arrivalSpeed="9.58" duration="12.00" routeLength="64.18" waitingTime="0.00" waitingCount="0" stopTime="0.00" timeLoss="4.57" rerouteNo="0" devices="tripinfo_33.0 emissions_33.0" vType="DEFAULT_VEHTYPE" speedFactor="1.16" vaporized="">
        <emissions CO_abs="1038.276715" CO2_abs="40051.139320" HC_abs="5.666623" PMx_abs="0.783004" NOx_abs="17.170546" fuel_abs="12774.632369" electricity_abs="0"/>
    </tripinfo>
    <tripinfo id="40.0" depart="0.00" departLane="4256546_1" departPos="5.10" departSpeed="0.00" departDelay="0.00" arrival="12.00" arrivalLane="230503369#1_1" arrivalPos="3.73" arrivalSpeed="6.71" duration="12.00" routeLength="44.18" waitingTime="0.00" waitingCount="0" stopTime="0.00" timeLoss="4.69" rerouteNo="0" devices="tripinfo_40.0 emissions_40.0" vType="DEFAULT_VEHTYPE" speedFactor="0.87" vaporized="">
        <emissions CO_abs="1229.918816" CO2_abs="38129.075014" HC_abs="6.490068" PMx_abs="0.764470" NOx_abs="16.497982" fuel_abs="12161.704058" electricity_abs="0"/>
    </tripinfo>
    <tripinfo id="11.0" depart="0.00" departLane="23715305#1_1" departPos="1.07" departSpeed="0.00" departDelay="0.00" arrival="14.00" arrivalLane="1008674254_1" arrivalPos="4.44" arrivalSpeed="9.04" duration="14.00" routeLength="108.79" waitingTime="0.00" waitingCount="0" stopTime="0.00" timeLoss="2.36" rerouteNo="0" devices="tripinfo_11.0 emissions_11.0" vType="DEFAULT_VEHTYPE" speedFactor="1.08" vaporized="">
        <emissions CO_abs="840.146868" CO2_abs="40655.285710" HC_abs="4.762048" PMx_abs="0.666981" NOx_abs="16.499552" fuel_abs="12967.346937" electricity_abs="0"/>
    </tripinfo>
    <tripinfo id="63.0" depart="0.00" departLane="-195406732#0_1" departPos="0.20" departSpeed="0.00" departDelay="0.00" arrival="16.00" arrivalLane="498958807#0_1" arrivalPos="0.25" arrivalSpeed="2.56" duration="16.00" routeLength="65.20" waitingTime="4.00" waitingCount="1" stopTime="0.00" timeLoss="7.05" rerouteNo="0" devices="tripinfo_63.0 emissions_63.0" vType="DEFAULT_VEHTYPE" speedFactor="0.96" vaporized="">
        <emissions CO_abs="1458.746445" CO2_abs="38902.281465" HC_abs="7.552233" PMx_abs="0.815889" NOx_abs="16.967576" fuel_abs="12408.423325" electricity_abs="0"/>
    </tripinfo>
    <tripinfo id="41.0" depart="0.00" departLane="43118733#1_1" departPos="1.15" departSpeed="0.00" departDelay="0.00" arrival="18.00" arrivalLane="49796163_1" arrivalPos="2.26" arrivalSpeed="7.09" duration="18.00" routeLength="96.90" waitingTime="1.00" waitingCount="1" stopTime="0.00" timeLoss="5.61" rerouteNo="0" devices="tripinfo_41.0 emissions_41.0" vType="DEFAULT_VEHTYPE" speedFactor="0.92" vaporized="">
        <emissions CO_abs="1328.055783" CO2_abs="41517.980782" HC_abs="7.002757" PMx_abs="0.755463" NOx_abs="17.383874" fuel_abs="13242.720847" electricity_abs="0"/>
    </tripinfo>
    <tripinfo id="59.0" depart="0.00" departLane="43118734_1" departPos="0.20" departSpeed="0.00" departDelay="0.00" arrival="26.00" arrivalLane="1008674254_1" arrivalPos="4.44" arrivalSpeed="9.89" duration="26.00" routeLength="150.61" waitingTime="1.00" waitingCount="1" stopTime="0.00" timeLoss="11.48" rerouteNo="0" devices="tripinfo_59.0 emissions_59.0" vType="DEFAULT_VEHTYPE" speedFactor="1.18" vaporized="">
        <emissions CO_abs="1839.879852" CO2_abs="69837.965243" HC_abs="9.984749" PMx_abs="1.195882" NOx_abs="28.543121" fuel_abs="22275.616344" electricity_abs="0"/>
    </tripinfo>
    <tripinfo id="20.0" depart="0.00" departLane="43365536_1" departPos="4.41" departSpeed="0.00" departDelay="0.00" arrival="40.00" arrivalLane="-230503369#1_1" arrivalPos="3.73" arrivalSpeed="8.28" duration="40.00" routeLength="234.41" waitingTime="2.00" waitingCount="1" stopTime="0.00" timeLoss="9.70" rerouteNo="0" devices="tripinfo_20.0 emissions_20.0" vType="DEFAULT_VEHTYPE" speedFactor="0.94" vaporized="">
        <emissions CO_abs="2400.760290" CO2_abs="89253.848714" HC_abs="12.986083" PMx_abs="1.556966" NOx_abs="36.986142" fuel_abs="28468.504714" electricity_abs="0"/>
    </tripinfo>
    <tripinfo id="10.0" depart="0.00" departLane="480094740#1_1" departPos="3.76" departSpeed="0.00" departDelay="0.00" arrival="99.00" arrivalLane="43118738#1_2" arrivalPos="0.21" arrivalSpeed="8.11" duration="99.00" routeLength="106.23" waitingTime="73.00" waitingCount="2" stopTime="0.00" timeLoss="86.72" rerouteNo="0" devices="tripinfo_10.0 emissions_10.0" vType="DEFAULT_VEHTYPE" speedFactor="1.01" vaporized="">
        <emissions CO_abs="14073.092493" CO2_abs="255105.511888" HC_abs="70.054960" PMx_abs="6.042727" NOx_abs="115.004569" fuel_abs="81371.582002" electricity_abs="0"/>
    </tripinfo>
    <tripinfo id="55.1" depart="100.00" departLane="483872217#2_1" departPos="0.13" departSpeed="0.00" departDelay="0.00" arrival="104.00" arrivalLane="230503369#1_1" arrivalPos="3.73" arrivalSpeed="7.86" duration="4.00" routeLength="20.12" waitingTime="0.00" waitingCount="0" stopTime="0.00" timeLoss="1.45" rerouteNo="0" devices="tripinfo_55.1 emissions_55.1" vType="DEFAULT_VEHTYPE" speedFactor="0.95" vaporized="">
        <emissions CO_abs="525.925572" CO2_abs="18917.729092" HC_abs="2.840876" PMx_abs="0.389449" NOx_abs="8.241548" fuel_abs="6033.961508" electricity_abs="0"/>
    </tripinfo>
    <tripinfo id="70.1" depart="100.00" departLane="267215482#0_1" departPos="2.30" departSpeed="0.00" departDelay="0.00" arrival="104.00" arrivalLane="267215482#1_1" arrivalPos="12.03" arrivalSpeed="7.56" duration="4.00" routeLength="17.24" waitingTime="0.00" waitingCount="0" stopTime="0.00" timeLoss="2.21" rerouteNo="0" devices="tripinfo_70.1 emissions_70.1" vType="DEFAULT_VEHTYPE" speedFactor="1.18" vaporized="">
        <emissions CO_abs="532.534452" CO2_abs="18325.544619" HC_abs="2.856778" PMx_abs="0.379652" NOx_abs="7.997943" fuel_abs="5845.091537" electricity_abs="0"/>
    </tripinfo>
    <tripinfo id="77.1" depart="100.00" departLane="-498958807#2_1" departPos="5.10" departSpeed="0.00" departDelay="0.00" arrival="104.00" arrivalLane="195406732#0_1" arrivalPos="0.20" arrivalSpeed="7.27" duration="4.00" routeLength="16.08" waitingTime="0.00" waitingCount="0" stopTime="0.00" timeLoss="1.40" rerouteNo="0" devices="tripinfo_77.1 emissions_77.1" vType="DEFAULT_VEHTYPE" speedFactor="1.03" vaporized="">
        <emissions CO_abs="475.795126" CO2_abs="17823.892697" HC_abs="2.584613" PMx_abs="0.352525" NOx_abs="7.673660" fuel_abs="5685.077289" electricity_abs="0"/>
    </tripinfo>
    <tripinfo id="93.1" depart="100.00" departLane="483872217#0_1" departPos="5.10" departSpeed="0.00" departDelay="0.00" arrival="106.00" arrivalLane="230503369#0_1" arrivalPos="0.20" arrivalSpeed="6.83" duration="6.00" routeLength="22.03" waitingTime="0.00" waitingCount="0" stopTime="0.00" timeLoss="2.75" rerouteNo="0" devices="tripinfo_93.1 emissions_93.1" vType="DEFAULT_VEHTYPE" speedFactor="1.01" vaporized="">
        <emissions CO_abs="567.083662" CO2_abs="19022.754704" HC_abs="3.024778" PMx_abs="0.367169" NOx_abs="8.136164" fuel_abs="6067.511733" electricity_abs="0"/>
    </tripinfo>
    <tripinfo id="18.0" depart="0.00" departLane="480094741_1" departPos="5.10" departSpeed="0.00" departDelay="0.00" arrival="109.00" arrivalLane="43118733#1_2" arrivalPos="1.15" arrivalSpeed="7.47" duration="109.00" routeLength="218.61" waitingTime="66.00" waitingCount="2" stopTime="0.00" timeLoss="81.08" rerouteNo="0" devices="tripinfo_18.0 emissions_18.0" vType="DEFAULT_VEHTYPE" speedFactor="0.89" vaporized="">
        <emissions CO_abs="14102.728746" CO2_abs="277923.762847" HC_abs="70.693369" PMx_abs="6.247055" NOx_abs="123.354745" fuel_abs="88649.553601" electricity_abs="0"/>
    </tripinfo>
    <tripinfo id="27.1" depart="100.00" departLane="43118738#0_1" departPos="0.20" departSpeed="0.00" departDelay="0.00" arrival="109.00" arrivalLane="43118733#0_1" arrivalPos="0.50" arrivalSpeed="7.92" duration="9.00" routeLength="52.31" waitingTime="0.00" waitingCount="0" stopTime="0.00" timeLoss="2.60" rerouteNo="0" devices="tripinfo_27.1 emissions_27.1" vType="DEFAULT_VEHTYPE" speedFactor="1.02" vaporized="">
        <emissions CO_abs="776.157339" CO2_abs="30095.794950" HC_abs="4.231869" PMx_abs="0.543795" NOx_abs="12.571759" fuel_abs="9599.346653" electricity_abs="0"/>
    </tripinfo>
    <tripinfo id="40.1" depart="100.00" departLane="4256546_1" departPos="5.10" departSpeed="0.00" departDelay="0.00" arrival="112.00" arrivalLane="230503369#1_1" arrivalPos="3.73" arrivalSpeed="6.90" duration="12.00" routeLength="44.18" waitingTime="0.00" waitingCount="0" stopTime="0.00" timeLoss="6.29" rerouteNo="0" devices="tripinfo_40.1 emissions_40.1" vType="DEFAULT_VEHTYPE" speedFactor="1.09" vaporized="">
        <emissions CO_abs="1077.091980" CO2_abs="34386.739982" HC_abs="5.705933" PMx_abs="0.680180" NOx_abs="14.826694" fuel_abs="10968.033053" electricity_abs="0"/>
    </tripinfo>
    <tripinfo id="33.1" depart="100.00" departLane="230503369#2_1" departPos="5.10" departSpeed="0.00" departDelay="0.00" arrival="114.00" arrivalLane="-230503369#0_1" arrivalPos="0.20" arrivalSpeed="7.74" duration="14.00" routeLength="64.18" waitingTime="0.00" waitingCount="0" stopTime="0.00" timeLoss="4.94" rerouteNo="0" devices="tripinfo_33.1 emissions_33.1" vType="DEFAULT_VEHTYPE" speedFactor="1.01" vaporized="">
        <emissions CO_abs="1139.446407" CO2_abs="38515.560549" HC_abs="6.085377" PMx_abs="0.745675" NOx_abs="16.478501" fuel_abs="12284.943944" electricity_abs="0"/>
    </tripinfo>
    <tripinfo id="11.1" depart="100.00" departLane="23715305#1_1" departPos="1.07" departSpeed="0.00" departDelay="0.00" arrival="116.00" arrivalLane="1008674254_1" arrivalPos="4.44" arrivalSpeed="7.98" duration="16.00" routeLength="108.79" waitingTime="0.00" waitingCount="0" stopTime="0.00" timeLoss="2.60" rerouteNo="0" devices="tripinfo_11.1 emissions_11.1" vType="DEFAULT_VEHTYPE" speedFactor="0.94" vaporized="">
        <emissions CO_abs="958.124319" CO2_abs="40282.795990" HC_abs="5.285025" PMx_abs="0.656080" NOx_abs="16.375973" fuel_abs="12848.618891" electricity_abs="0"/>
    </tripinfo>
    <tripinfo id="63.1" depart="100.00" departLane="-195406732#0_1" departPos="0.20" departSpeed="0.00" departDelay="0.00" arrival="116.00" arrivalLane="498958807#0_1" arrivalPos="0.25" arrivalSpeed="3.34" duration="16.00" routeLength="65.20" waitingTime="4.00" waitingCount="1" stopTime="0.00" timeLoss="7.38" rerouteNo="0" devices="tripinfo_63.1 emissions_63.1" vType="DEFAULT_VEHTYPE" speedFactor="0.93" vaporized="">
        <emissions CO_abs="1511.116945" CO2_abs="41439.325808" HC_abs="7.839844" PMx_abs="0.809528" NOx_abs="17.689772" fuel_abs="13217.689218" electricity_abs="0"/>
    </tripinfo>
    <tripinfo id="70.2" depart="200.00" departLane="267215482#0_1" departPos="2.30" departSpeed="0.00" departDelay="0.00" arrival="204.00" arrivalLane="267215482#1_1" arrivalPos="12.03" arrivalSpeed="6.76" duration="4.00" routeLength="17.24" waitingTime="0.00" waitingCount="0" stopTime="0.00" timeLoss="2.07" rerouteNo="0" devices="tripinfo_70.2 emissions_70.2" vType="DEFAULT_VEHTYPE" speedFactor="1.08" vaporized="">
        <emissions CO_abs="490.787360" CO2_abs="16394.477037" HC_abs="2.618390" PMx_abs="0.328223" NOx_abs="7.090607" fuel_abs="5229.182126" electricity_abs="0"/>
    </tripinfo>
    <tripinfo id="77.2" depart="200.00" departLane="-498958807#2_1" departPos="5.10" departSpeed="0.00" departDelay="0.00" arrival="204.00" arrivalLane="195406732#0_1" arrivalPos="0.20" arrivalSpeed="6.78" duration="4.00" routeLength="16.08" waitingTime="0.00" waitingCount="0" stopTime="0.00" timeLoss="1.36" rerouteNo="0" devices="tripinfo_77.2 emissions_77.2" vType="DEFAULT_VEHTYPE" speedFactor="0.97" vaporized="">
        <emissions CO_abs="465.043460" CO2_abs="16718.484884" HC_abs="2.508403" PMx_abs="0.327085" NOx_abs="7.178602" fuel_abs="5332.514026" electricity_abs="0"/>
    </tripinfo>
    <tripinfo id="55.2" depart="200.00" departLane="483872217#2_1" departPos="0.13" departSpeed="0.00" departDelay="0.00" arrival="205.00" arrivalLane="230503369#1_1" arrivalPos="3.73" arrivalSpeed="9.55" duration="5.00" routeLength="20.12" waitingTime="0.00" waitingCount="0" stopTime="0.00" timeLoss="1.90" rerouteNo="0" devices="tripinfo_55.2 emissions_55.2" vType="DEFAULT_VEHTYPE" speedFactor="1.09" vaporized="">
        <emissions CO_abs="672.408897" CO2_abs="25423.816549" HC_abs="3.663411" PMx_abs="0.527482" NOx_abs="11.084555" fuel_abs="8109.105216" electricity_abs="0"/>
    </tripinfo>
    <tripinfo id="93.2" depart="200.00" departLane="483872217#0_1" departPos="5.10" departSpeed="0.00" departDelay="0.00" arrival="206.00" arrivalLane="230503369#0_1" arrivalPos="0.20" arrivalSpeed="7.08" duration="6.00" routeLength="22.03" waitingTime="0.00" waitingCount="0" stopTime="0.00" timeLoss="3.10" rerouteNo="0" devices="tripinfo_93.2 emissions_93.2" vType="DEFAULT_VEHTYPE" speedFactor="1.03" vaporized="">
        <emissions CO_abs="618.977932" CO2_abs="20210.686808" HC_abs="3.291411" PMx_abs="0.406504" NOx_abs="8.747994" fuel_abs="6446.407464" electricity_abs="0"/>
    </tripinfo>
    <tripinfo id="40.2" depart="200.00" departLane="4256546_1" departPos="5.10" departSpeed="0.00" departDelay="0.00" arrival="212.00" arrivalLane="230503369#1_1" arrivalPos="3.73" arrivalSpeed="7.40" duration="12.00" routeLength="44.18" waitingTime="0.00" waitingCount="0" stopTime="0.00" timeLoss="5.56" rerouteNo="0" devices="tripinfo_40.2 emissions_40.2" vType="DEFAULT_VEHTYPE" speedFactor="1.08" vaporized="">
        <emissions CO_abs="1067.003112" CO2_abs="37506.872796" HC_abs="5.742851" PMx_abs="0.776318" NOx_abs="16.381030" fuel_abs="11963.127661" electricity_abs="0"/>
    </tripinfo>
    <tripinfo id="33.2" depart="200.00" departLane="230503369#2_1" departPos="5.10" departSpeed="0.00" departDelay="0.00" arrival="213.00" arrivalLane="-230503369#0_1" arrivalPos="0.20" arrivalSpeed="9.93" duration="13.00" routeLength="64.18" waitingTime="0.00" waitingCount="0" stopTime="0.00" timeLoss="4.58" rerouteNo="0" devices="tripinfo_33.2 emissions_33.2" vType="DEFAULT_VEHTYPE" speedFactor="1.12" vaporized="">
        <emissions CO_abs="1133.839549" CO2_abs="44833.426393" HC_abs="6.214088" PMx_abs="0.871523" NOx_abs="19.168129" fuel_abs="14299.970403" electricity_abs="0"/>
    </tripinfo>
    <tripinfo id="63.2" depart="200.00" departLane="-195406732#0_1" departPos="0.20" departSpeed="0.00" departDelay="0.00" arrival="215.00" arrivalLane="498958807#0_1" arrivalPos="0.25" arrivalSpeed="2.76" duration="15.00" routeLength="65.20" waitingTime="4.00" waitingCount="1" stopTime="0.00" timeLoss="7.17" rerouteNo="0" devices="tripinfo_63.2 emissions_63.2" vType="DEFAULT_VEHTYPE" speedFactor="1.03" vaporized="">
        <emissions CO_abs="1324.276970" CO2_abs="37886.414450" HC_abs="6.918894" PMx_abs="0.792270" NOx_abs="16.494676" fuel_abs="12084.341003" electricity_abs="0"/>
    </tripinfo>
    <tripinfo id="11.2" depart="200.00" departLane="23715305#1_1" departPos="1.07" departSpeed="0.00" departDelay="0.00" arrival="256.00" arrivalLane="1008674254_1" arrivalPos="4.44" arrivalSpeed="7.89" duration="56.00" routeLength="108.79" waitingTime="37.00" waitingCount="1" stopTime="0.00" timeLoss="42.71" rerouteNo="0" devices="tripinfo_11.2 emissions_11.2" vType="DEFAULT_VEHTYPE" speedFactor="0.95" vaporized="">
        <emissions CO_abs="7411.888226" CO2_abs="149099.528240" HC_abs="37.239508" PMx_abs="3.400891" NOx_abs="66.451834" fuel_abs="47558.239349" electricity_abs="0"/>
    </tripinfo>
    <personinfo id="13" depart="26.00" type="DEFAULT_PEDTYPE" speedFactor="0.83" duration="245.00" waitingTime="0.00" timeLoss="23.26" traveltime="245.00">
        <walk depart="26.00" departPos="0.00" arrival="271.00" arrivalPos="1.29" duration="245.00" routeLength="15.09" timeLoss="23.26" maxSpeed="0.07"/>
    </personinfo>
    <personinfo id="23" depart="46.00" type="DEFAULT_PEDTYPE" speedFactor="1.06" duration="235.00" waitingTime="0.00" timeLoss="25.90" traveltime="235.00">
        <walk depart="46.00" departPos="0.00" arrival="281.00" arrivalPos="0.10" duration="235.00" routeLength="188.13" timeLoss="25.90" maxSpeed="0.90"/>
    </personinfo>
    <personinfo id="21" depart="42.00" type="DEFAULT_PEDTYPE" speedFactor="1.15" duration="259.00" waitingTime="0.00" timeLoss="27.45" traveltime="259.00">
        <walk depart="42.00" departPos="0.00" arrival="301.00" arrivalPos="0.10" duration="259.00" routeLength="169.76" timeLoss="27.45" maxSpeed="0.73"/>
    </personinfo>
    <tripinfo id="70.3" depart="300.00" departLane="267215482#0_1" departPos="2.30" departSpeed="0.00" departDelay="0.00" arrival="304.00" arrivalLane="267215482#1_1" arrivalPos="12.03" arrivalSpeed="7.65" duration="4.00" routeLength="17.24" waitingTime="0.00" waitingCount="0" stopTime="0.00" timeLoss="1.94" rerouteNo="0" devices="tripinfo_70.3 emissions_70.3" vType="DEFAULT_VEHTYPE" speedFactor="1.11" vaporized="">
        <emissions CO_abs="511.319851" CO2_abs="18390.425129" HC_abs="2.761082" PMx_abs="0.374423" NOx_abs="7.987973" fuel_abs="5865.778200" electricity_abs="0"/>
    </tripinfo>
    <tripinfo id="77.3" depart="300.00" departLane="-498958807#2_1" departPos="5.10" departSpeed="0.00" departDelay="0.00" arrival="304.00" arrivalLane="195406732#0_1" arrivalPos="0.20" arrivalSpeed="7.15" duration="4.00" routeLength="16.08" waitingTime="0.00" waitingCount="0" stopTime="0.00" timeLoss="1.24" rerouteNo="0" devices="tripinfo_77.3 emissions_77.3" vType="DEFAULT_VEHTYPE" speedFactor="0.97" vaporized="">
        <emissions CO_abs="439.225090" CO2_abs="16241.761593" HC_abs="2.385613" PMx_abs="0.346332" NOx_abs="7.157137" fuel_abs="5180.418502" electricity_abs="0"/>
    </tripinfo>
    <personinfo id="14" depart="28.00" type="DEFAULT_PEDTYPE" speedFactor="1.09" duration="277.00" waitingTime="0.00" timeLoss="46.53" traveltime="277.00">
        <walk depart="28.00" departPos="0.00" arrival="305.00" arrivalPos="0.10" duration="277.00" routeLength="193.47" timeLoss="46.53" maxSpeed="0.84"/>
    </personinfo>
    <tripinfo id="55.3" depart="300.00" departLane="483872217#2_1" departPos="0.13" departSpeed="0.00" departDelay="0.00" arrival="305.00" arrivalLane="230503369#1_1" arrivalPos="3.73" arrivalSpeed="7.92" duration="5.00" routeLength="20.12" waitingTime="0.00" waitingCount="0" stopTime="0.00" timeLoss="1.75" rerouteNo="0" devices="tripinfo_55.3 emissions_55.3" vType="DEFAULT_VEHTYPE" speedFactor="0.93" vaporized="">
        <emissions CO_abs="611.095858" CO2_abs="20935.342967" HC_abs="3.272981" PMx_abs="0.418712" NOx_abs="9.043547" fuel_abs="6677.527842" electricity_abs="0"/>
    </tripinfo>
    <tripinfo id="93.3" depart="300.00" departLane="483872217#0_1" departPos="5.10" departSpeed="0.00" departDelay="0.00" arrival="306.00" arrivalLane="230503369#0_1" arrivalPos="0.20" arrivalSpeed="5.94" duration="6.00" routeLength="22.03" waitingTime="0.00" waitingCount="0" stopTime="0.00" timeLoss="2.41" rerouteNo="0" devices="tripinfo_93.3 emissions_93.3" vType="DEFAULT_VEHTYPE" speedFactor="0.86" vaporized="">
        <emissions CO_abs="674.140635" CO2_abs="19292.235438" HC_abs="3.514695" PMx_abs="0.368186" NOx_abs="8.224352" fuel_abs="6153.533124" electricity_abs="0"/>
    </tripinfo>
    <personinfo id="25" depart="50.00" type="DEFAULT_PEDTYPE" speedFactor="0.97" duration="261.00" waitingTime="0.00" timeLoss="36.93" traveltime="261.00">
        <walk depart="50.00" departPos="0.00" arrival="311.00" arrivalPos="1.66" duration="261.00" routeLength="109.84" timeLoss="36.93" maxSpeed="0.49"/>
    </personinfo>
    <tripinfo id="33.3" depart="300.00" departLane="230503369#2_1" departPos="5.10" departSpeed="0.00" departDelay="0.00" arrival="312.00" arrivalLane="-230503369#0_1" arrivalPos="0.20" arrivalSpeed="9.95" duration="12.00" routeLength="64.18" waitingTime="0.00" waitingCount="0" stopTime="0.00" timeLoss="4.28" rerouteNo="0" devices="tripinfo_33.3 emissions_33.3" vType="DEFAULT_VEHTYPE" speedFactor="1.18" vaporized="">
        <emissions CO_abs="1146.804444" CO2_abs="43696.410687" HC_abs="6.245298" PMx_abs="0.851771" NOx_abs="18.719992" fuel_abs="13937.332454" electricity_abs="0"/>
    </tripinfo>
    <tripinfo id="40.3" depart="300.00" departLane="4256546_1" departPos="5.10" departSpeed="0.00" departDelay="0.00" arrival="312.00" arrivalLane="230503369#1_1" arrivalPos="3.73" arrivalSpeed="6.40" duration="12.00" routeLength="44.18" waitingTime="0.00" waitingCount="0" stopTime="0.00" timeLoss="4.47" rerouteNo="0" devices="tripinfo_40.3 emissions_40.3" vType="DEFAULT_VEHTYPE" speedFactor="0.94" vaporized="">
        <emissions CO_abs="1055.413036" CO2_abs="32353.141647" HC_abs="5.557318" PMx_abs="0.633313" NOx_abs="13.902894" fuel_abs="10319.428775" electricity_abs="0"/>
    </tripinfo>
    <tripinfo id="63.3" depart="300.00" departLane="-195406732#0_1" departPos="0.20" departSpeed="0.00" departDelay="0.00" arrival="315.00" arrivalLane="498958807#0_1" arrivalPos="0.25" arrivalSpeed="3.21" duration="15.00" routeLength="65.20" waitingTime="4.00" waitingCount="1" stopTime="0.00" timeLoss="7.21" rerouteNo="0" devices="tripinfo_63.3 emissions_63.3" vType="DEFAULT_VEHTYPE" speedFactor="1.11" vaporized="">
        <emissions CO_abs="1425.246930" CO2_abs="41425.477211" HC_abs="7.460622" PMx_abs="0.857098" NOx_abs="17.975371" fuel_abs="13213.164927" electricity_abs="0"/>
    </tripinfo>
    <tripinfo id="11.3" depart="300.00" departLane="23715305#1_1" departPos="1.07" departSpeed="0.00" departDelay="0.00" arrival="316.00" arrivalLane="1008674254_1" arrivalPos="4.44" arrivalSpeed="8.36" duration="16.00" routeLength="108.79" waitingTime="0.00" waitingCount="0" stopTime="0.00" timeLoss="3.24" rerouteNo="0" devices="tripinfo_11.3 emissions_11.3" vType="DEFAULT_VEHTYPE" speedFactor="0.98" vaporized="">
        <emissions CO_abs="1021.461092" CO2_abs="42503.654010" HC_abs="5.629296" PMx_abs="0.719659" NOx_abs="17.452104" fuel_abs="13556.960669" electricity_abs="0"/>
    </tripinfo>
    <tripinfo id="25.0" depart="2.00" departLane="23715308#0_1" departPos="0.20" departSpeed="0.00" departDelay="2.00" arrival="320.00" arrivalLane="111971057#1_1" arrivalPos="3.20" arrivalSpeed="9.15" duration="318.00" routeLength="19.66" waitingTime="301.00" waitingCount="1" stopTime="0.00" timeLoss="303.60" rerouteNo="0" devices="tripinfo_25.0 emissions_25.0" vType="DEFAULT_VEHTYPE" speedFactor="1.03" vaporized="">
        <emissions CO_abs="50070.340268" CO2_abs="800709.195392" HC_abs="246.790493" PMx_abs="20.067827" NOx_abs="367.086668" fuel_abs="255406.596507" electricity_abs="0"/>
    </tripinfo>
    <tripinfo id="29.0" depart="0.00" departLane="1065112866_1" departPos="0.20" departSpeed="0.00" departDelay="0.00" arrival="320.00" arrivalLane="23715305#1_1" arrivalPos="1.07" arrivalSpeed="7.62" duration="320.00" routeLength="18.66" waitingTime="301.00" waitingCount="1" stopTime="0.00" timeLoss="301.08" rerouteNo="0" devices="tripinfo_29.0 emissions_29.0" vType="DEFAULT_VEHTYPE" speedFactor="0.93" vaporized="">
        <emissions CO_abs="49598.111111" CO2_abs="790041.388889" HC_abs="244.395278" PMx_abs="19.857639" NOx_abs="362.537778" fuel_abs="252003.888889" electricity_abs="0"/>
    </tripinfo>
    <tripinfo id="58.0" depart="1.00" departLane="23715304#1_1" departPos="5.10" departSpeed="0.00" departDelay="1.00" arrival="321.00" arrivalLane="43118734_1" arrivalPos="0.20" arrivalSpeed="0.00" duration="320.00" routeLength="18.59" waitingTime="301.00" waitingCount="1" stopTime="0.00" timeLoss="305.38" rerouteNo="0" devices="tripinfo_58.0 emissions_58.0" vType="DEFAULT_VEHTYPE" speedFactor="0.97" vaporized="teleport">
        <emissions CO_abs="50201.783163" CO2_abs="801128.970986" HC_abs="247.402749" PMx_abs="20.115501" NOx_abs="367.523991" fuel_abs="255540.518923" electricity_abs="0"/>
    </tripinfo>
    <tripinfo id="30.0" depart="0.00" departLane="817967122_1" departPos="4.36" departSpeed="0.00" departDelay="0.00" arrival="323.00" arrivalLane="43118734_1" arrivalPos="0.20" arrivalSpeed="0.00" duration="323.00" routeLength="35.51" waitingTime="301.00" waitingCount="1" stopTime="0.00" timeLoss="305.59" rerouteNo="0" devices="tripinfo_30.0 emissions_30.0" vType="DEFAULT_VEHTYPE" speedFactor="0.94" vaporized="teleport">
        <emissions CO_abs="50341.486798" CO2_abs="810112.364285" HC_abs="248.253759" PMx_abs="20.299741" NOx_abs="371.445612" fuel_abs="258405.774264" electricity_abs="0"/>
    </tripinfo>
    <personinfo id="47" depart="94.00" type="DEFAULT_PEDTYPE" speedFactor="1.04" duration="232.00" waitingTime="0.00" timeLoss="25.53" traveltime="232.00">
        <walk depart="94.00" departPos="0.00" arrival="326.00" arrivalPos="3.76" duration="232.00" routeLength="293.73" timeLoss="25.53" maxSpeed="1.42"/>
    </personinfo>
    <personinfo id="37" depart="74.00" type="DEFAULT_PEDTYPE" speedFactor="0.88" duration="256.00" waitingTime="0.00" timeLoss="30.88" traveltime="256.00">
        <walk depart="74.00" departPos="0.00" arrival="330.00" arrivalPos="0.15" duration="256.00" routeLength="99.72" timeLoss="30.88" maxSpeed="0.44"/>
    </personinfo>
    <personinfo id="31" depart="62.00" type="DEFAULT_PEDTYPE" speedFactor="1.14" duration="268.00" waitingTime="0.00" timeLoss="28.87" traveltime="268.00">
        <walk depart="62.00" departPos="0.00" arrival="330.00" arrivalPos="2.62" duration="268.00" routeLength="29.30" timeLoss="28.87" maxSpeed="0.12"/>
    </personinfo>