<?xml version="1.0" encoding="UTF-8"?>

<!-- generated on 2025-03-29 13:08:28 by Eclipse SUMO GUI Version 1.20.0
<configuration xmlns:xsi="http://www.w3.org/2001/XMLSchema-instance" xsi:noNamespaceSchemaLocation="http://sumo.dlr.de/xsd/sumoConfiguration.xsd">

    <input>
        <net-file value="C:\Users\athar\OneDrive\Documents\Sapan&apos;s Project\SUMO\config\../data/network/trafalgar.net.xml"/>
        <route-files value="C:\Users\athar\OneDrive\Documents\Sapan&apos;s Project\SUMO\config\../scenarios/rain/vehicles.rou.xml,C:\Users\athar\OneDrive\Documents\Sapan&apos;s Project\SUMO\config\../scenarios/rain/pedestrians.rou.xml"/>
    </input>

    <output>
        <emission-output value="C:\Users\athar\OneDrive\Documents\Sapan&apos;s Project\SUMO\config\../output/rain/emissions.xml"/>
        <tripinfo-output value="C:\Users\athar\OneDrive\Documents\Sapan&apos;s Project\SUMO\config\../output/rain/tripinfo.xml"/>
    </output>

    <time>
        <begin value="0"/>
        <end value="3600"/>
    </time>

</configuration>
-->

<tripinfos xmlns:xsi="http://www.w3.org/2001/XMLSchema-instance" xsi:noNamespaceSchemaLocation="http://sumo.dlr.de/xsd/tripinfo_file.xsd">
    <tripinfo id="3" depart="0.00" departLane="23715305#1_1" departPos="1.07" departSpeed="0.00" departDelay="0.00" arrival="14.00" arrivalLane="1008674254_1" arrivalPos="4.44" arrivalSpeed="9.23" duration="14.00" routeLength="108.79" waitingTime="0.00" waitingCount="0" stopTime="0.00" timeLoss="2.72" rerouteNo="0" devices="tripinfo_3 emissions_3" vType="DEFAULT_VEHTYPE" speedFactor="1.08" vaporized="">
        <emissions CO_abs="859.685835" CO2_abs="38625.834969" HC_abs="4.808613" PMx_abs="0.667654" NOx_abs="15.917495" fuel_abs="12320.035289" electricity_abs="0"/>
    </tripinfo>
    <tripinfo id="2" depart="0.00" departLane="480094740#1_1" departPos="3.76" departSpeed="0.00" departDelay="0.00" arrival="19.00" arrivalLane="43118738#1_2" arrivalPos="0.21" arrivalSpeed="9.01" duration="19.00" routeLength="106.23" waitingTime="0.00" waitingCount="0" stopTime="0.00" timeLoss="6.26" rerouteNo="0" devices="tripinfo_2 emissions_2" vType="DEFAULT_VEHTYPE" speedFactor="1.01" vaporized="">
        <emissions CO_abs="1278.201547" CO2_abs="48181.436382" HC_abs="6.936712" PMx_abs="0.874124" NOx_abs="20.152374" fuel_abs="15367.956350" electricity_abs="0"/>
    </tripinfo>
    <tripinfo id="1" depart="0.00" departLane="230506728_1" departPos="4.29" departSpeed="0.00" departDelay="0.00" arrival="24.00" arrivalLane="195406732#0_1" arrivalPos="0.20" arrivalSpeed="4.65" duration="24.00" routeLength="164.95" waitingTime="0.00" waitingCount="0" stopTime="0.00" timeLoss="4.02" rerouteNo="0" devices="tripinfo_1 emissions_1" vType="DEFAULT_VEHTYPE" speedFactor="0.94" vaporized="">
        <emissions CO_abs="1166.918683" CO2_abs="50337.335766" HC_abs="6.458357" PMx_abs="0.774646" NOx_abs="20.158478" fuel_abs="16055.652422" electricity_abs="0"/>
    </tripinfo>
    <tripinfo id="4" depart="0.00" departLane="483872216_1" departPos="5.10" departSpeed="0.00" departDelay="0.00" arrival="27.00" arrivalLane="43118733#0_2" arrivalPos="0.50" arrivalSpeed="8.33" duration="27.00" routeLength="203.43" waitingTime="0.00" waitingCount="0" stopTime="0.00" timeLoss="4.44" rerouteNo="0" devices="tripinfo_4 emissions_4" vType="DEFAULT_VEHTYPE" speedFactor="1.03" vaporized="">
        <emissions CO_abs="1462.694597" CO2_abs="72149.601342" HC_abs="8.317472" PMx_abs="1.156631" NOx_abs="29.134621" fuel_abs="23012.735573" electricity_abs="0"/>
    </tripinfo>
    <tripinfo id="0" depart="0.00" departLane="43118737#2_1" departPos="0.20" departSpeed="0.00" departDelay="0.00" arrival="52.00" arrivalLane="-230503369#0_1" arrivalPos="0.20" arrivalSpeed="9.22" duration="52.00" routeLength="386.83" waitingTime="0.00" waitingCount="0" stopTime="0.00" timeLoss="9.31" rerouteNo="0" devices="tripinfo_0 emissions_0" vType="DEFAULT_VEHTYPE" speedFactor="1.06" vaporized="">
        <emissions CO_abs="2803.130690" CO2_abs="139827.539613" HC_abs="15.986788" PMx_abs="2.295785" NOx_abs="56.825500" fuel_abs="44599.113342" electricity_abs="0"/>
    </tripinfo>
    <tripinfo id="6" depart="60.00" departLane="23715308#1_1" departPos="0.20" departSpeed="0.00" departDelay="0.00" arrival="91.00" arrivalLane="377367118_1" arrivalPos="0.35" arrivalSpeed="4.72" duration="31.00" routeLength="114.80" waitingTime="12.00" waitingCount="1" stopTime="0.00" timeLoss="17.13" rerouteNo="0" devices="tripinfo_6 emissions_6" vType="DEFAULT_VEHTYPE" speedFactor="0.94" vaporized="">
        <emissions CO_abs="3203.485648" CO2_abs="78015.913082" HC_abs="16.407214" PMx_abs="1.651649" NOx_abs="34.056505" fuel_abs="24884.424223" electricity_abs="0"/>
    </tripinfo>
    <tripinfo id="7" depart="60.00" departLane="480094741_1" departPos="5.10" departSpeed="0.00" departDelay="0.00" arrival="104.00" arrivalLane="43118733#1_2" arrivalPos="1.15" arrivalSpeed="7.56" duration="44.00" routeLength="218.61" waitingTime="5.00" waitingCount="2" stopTime="0.00" timeLoss="15.14" rerouteNo="0" devices="tripinfo_7 emissions_7" vType="DEFAULT_VEHTYPE" speedFactor="0.86" vaporized="">
        <emissions CO_abs="3344.995199" CO2_abs="102813.827536" HC_abs="17.600197" PMx_abs="1.894360" NOx_abs="43.209119" fuel_abs="32793.867611" electricity_abs="0"/>
    </tripinfo>
    <tripinfo id="8" depart="60.00" departLane="43365536_1" departPos="4.41" departSpeed="0.00" departDelay="0.00" arrival="105.00" arrivalLane="-230503369#1_1" arrivalPos="3.73" arrivalSpeed="9.25" duration="45.00" routeLength="234.41" waitingTime="8.00" waitingCount="2" stopTime="0.00" timeLoss="19.03" rerouteNo="0" devices="tripinfo_8 emissions_8" vType="DEFAULT_VEHTYPE" speedFactor="1.09" vaporized="">
        <emissions CO_abs="3761.360218" CO2_abs="119934.478772" HC_abs="19.927043" PMx_abs="2.366811" NOx_abs="51.293989" fuel_abs="38254.474364" electricity_abs="0"/>
    </tripinfo>
    <tripinfo id="9" depart="60.00" departLane="-483872216_1" departPos="5.10" departSpeed="0.00" departDelay="0.00" arrival="108.00" arrivalLane="195406732#1_1" arrivalPos="22.77" arrivalSpeed="7.94" duration="48.00" routeLength="277.22" waitingTime="6.00" waitingCount="1" stopTime="0.00" timeLoss="16.60" rerouteNo="0" devices="tripinfo_9 emissions_9" vType="DEFAULT_VEHTYPE" speedFactor="1.03" vaporized="">
        <emissions CO_abs="3579.427388" CO2_abs="128734.554644" HC_abs="19.292825" PMx_abs="2.413854" NOx_abs="54.291893" fuel_abs="41061.208014" electricity_abs="0"/>
    </tripinfo>
    <tripinfo id="5" depart="60.00" departLane="480094740#2_1" departPos="1.25" departSpeed="0.00" departDelay="0.00" arrival="110.00" arrivalLane="43154948_1" arrivalPos="0.67" arrivalSpeed="6.34" duration="50.00" routeLength="212.42" waitingTime="9.00" waitingCount="2" stopTime="0.00" timeLoss="19.73" rerouteNo="0" devices="tripinfo_5 emissions_5" vType="DEFAULT_VEHTYPE" speedFactor="0.83" vaporized="">
        <emissions CO_abs="4513.301166" CO2_abs="125097.423561" HC_abs="23.445188" PMx_abs="2.435597" NOx_abs="53.414077" fuel_abs="39901.657093" electricity_abs="0"/>
    </tripinfo>
    <tripinfo id="13" depart="120.00" departLane="43118738#0_1" departPos="0.20" departSpeed="0.00" departDelay="0.00" arrival="129.00" arrivalLane="43118733#0_1" arrivalPos="0.50" arrivalSpeed="7.71" duration="9.00" routeLength="52.31" waitingTime="0.00" waitingCount="0" stopTime="0.00" timeLoss="2.15" rerouteNo="0" devices="tripinfo_13 emissions_13" vType="DEFAULT_VEHTYPE" speedFactor="0.93" vaporized="">
        <emissions CO_abs="691.052609" CO2_abs="26150.374788" HC_abs="3.759378" PMx_abs="0.511016" NOx_abs="11.200997" fuel_abs="8340.881206" electricity_abs="0"/>
    </tripinfo>
    <tripinfo id="11" depart="120.00" departLane="23715308#0_1" departPos="0.20" departSpeed="0.00" departDelay="0.00" arrival="135.00" arrivalLane="111971057#1_1" arrivalPos="3.20" arrivalSpeed="6.75" duration="15.00" routeLength="112.20" waitingTime="0.00" waitingCount="0" stopTime="0.00" timeLoss="3.68" rerouteNo="0" devices="tripinfo_11 emissions_11" vType="DEFAULT_VEHTYPE" speedFactor="1.12" vaporized="">
        <emissions CO_abs="905.046554" CO2_abs="42147.531676" HC_abs="5.102421" PMx_abs="0.752264" NOx_abs="17.511884" fuel_abs="13443.263022" electricity_abs="0"/>
    </tripinfo>
    <tripinfo id="12" depart="120.00" departLane="230506725_1" departPos="0.20" departSpeed="0.00" departDelay="0.00" arrival="145.00" arrivalLane="498958807#1_1" arrivalPos="31.55" arrivalSpeed="8.37" duration="25.00" routeLength="181.60" waitingTime="0.00" waitingCount="0" stopTime="0.00" timeLoss="3.74" rerouteNo="0" devices="tripinfo_12 emissions_12" vType="DEFAULT_VEHTYPE" speedFactor="0.99" vaporized="">
        <emissions CO_abs="1387.181813" CO2_abs="65411.130639" HC_abs="7.820621" PMx_abs="1.070273" NOx_abs="26.589945" fuel_abs="20863.453830" electricity_abs="0"/>
    </tripinfo>
    <tripinfo id="19" depart="180.00" departLane="23715305#1_1" departPos="1.07" departSpeed="0.00" departDelay="0.00" arrival="195.00" arrivalLane="1008674254_1" arrivalPos="4.44" arrivalSpeed="8.99" duration="15.00" routeLength="108.79" waitingTime="0.00" waitingCount="0" stopTime="0.00" timeLoss="2.34" rerouteNo="0" devices="tripinfo_19 emissions_19" vType="DEFAULT_VEHTYPE" speedFactor="1.01" vaporized="">
        <emissions CO_abs="884.410535" CO2_abs="40562.538674" HC_abs="4.954966" PMx_abs="0.640982" NOx_abs="16.327890" fuel_abs="12937.819691" electricity_abs="0"/>
    </tripinfo>
    <tripinfo id="17" depart="180.00" departLane="230506728_1" departPos="4.29" departSpeed="0.00" departDelay="0.00" arrival="208.00" arrivalLane="195406732#0_1" arrivalPos="0.20" arrivalSpeed="6.72" duration="28.00" routeLength="164.95" waitingTime="3.00" waitingCount="1" stopTime="0.00" timeLoss="11.46" rerouteNo="0" devices="tripinfo_17 emissions_17" vType="DEFAULT_VEHTYPE" speedFactor="1.16" vaporized="">
        <emissions CO_abs="2376.949604" CO2_abs="89308.061015" HC_abs="12.922246" PMx_abs="1.772572" NOx_abs="38.319596" fuel_abs="28485.542800" electricity_abs="0"/>
    </tripinfo>
    <tripinfo id="15" depart="180.00" departLane="1065112866_1" departPos="0.20" departSpeed="0.00" departDelay="0.00" arrival="209.00" arrivalLane="23715305#1_1" arrivalPos="1.07" arrivalSpeed="8.15" duration="29.00" routeLength="144.85" waitingTime="1.00" waitingCount="1" stopTime="0.00" timeLoss="11.22" rerouteNo="0" devices="tripinfo_15 emissions_15" vType="DEFAULT_VEHTYPE" speedFactor="0.94" vaporized="">
        <emissions CO_abs="1967.458681" CO2_abs="60726.612722" HC_abs="10.357473" PMx_abs="1.113632" NOx_abs="25.466592" fuel_abs="19369.580779" electricity_abs="0"/>
    </tripinfo>
    <tripinfo id="10" depart="120.00" departLane="43118737#1_1" departPos="0.11" departSpeed="0.00" departDelay="0.00" arrival="211.00" arrivalLane="23715304#2_2" arrivalPos="0.20" arrivalSpeed="4.68" duration="91.00" routeLength="385.91" waitingTime="30.00" waitingCount="3" stopTime="0.00" timeLoss="48.35" rerouteNo="0" devices="tripinfo_10 emissions_10" vType="DEFAULT_VEHTYPE" speedFactor="1.05" vaporized="">
        <emissions CO_abs="8631.503121" CO2_abs="233489.984987" HC_abs="44.753549" PMx_abs="4.799130" NOx_abs="100.921442" fuel_abs="74474.929998" electricity_abs="0"/>
    </tripinfo>
    <tripinfo id="14" depart="120.00" departLane="111971057#0_1" departPos="0.24" departSpeed="0.00" departDelay="0.00" arrival="222.00" arrivalLane="43154948_1" arrivalPos="0.67" arrivalSpeed="6.76" duration="102.00" routeLength="282.32" waitingTime="40.00" waitingCount="6" stopTime="0.00" timeLoss="64.77" rerouteNo="0" devices="tripinfo_14 emissions_14" vType="DEFAULT_VEHTYPE" speedFactor="0.88" vaporized="">
        <emissions CO_abs="11774.203092" CO2_abs="269092.439343" HC_abs="59.887636" PMx_abs="5.794403" NOx_abs="118.156033" fuel_abs="85831.685783" electricity_abs="0"/>
    </tripinfo>
    <tripinfo id="18" depart="180.00" departLane="480094740#1_1" departPos="3.76" departSpeed="0.00" departDelay="0.00" arrival="239.00" arrivalLane="43118738#1_2" arrivalPos="0.21" arrivalSpeed="8.18" duration="59.00" routeLength="106.23" waitingTime="34.00" waitingCount="4" stopTime="0.00" timeLoss="46.66" rerouteNo="0" devices="tripinfo_18 emissions_18" vType="DEFAULT_VEHTYPE" speedFactor="1.02" vaporized="">
        <emissions CO_abs="7860.669430" CO2_abs="163944.819629" HC_abs="39.640468" PMx_abs="3.756009" NOx_abs="73.309258" fuel_abs="52293.225524" electricity_abs="0"/>
    </tripinfo>
    <personinfo id="0" depart="0.00" type="DEFAULT_PEDTYPE" speedFactor="1.05" duration="247.00" waitingTime="0.00" timeLoss="26.22" traveltime="247.00">
        <walk depart="0.00" departPos="0.00" arrival="247.00" arrivalPos="8.60" duration="247.00" routeLength="161.56" timeLoss="26.22" maxSpeed="0.73"/>
    </personinfo>
    <personinfo id="13" depart="26.00" type="DEFAULT_PEDTYPE" speedFactor="1.17" duration="246.00" waitingTime="0.00" timeLoss="24.26" traveltime="246.00">
        <walk depart="26.00" departPos="0.00" arrival="272.00" arrivalPos="1.29" duration="246.00" routeLength="15.09" timeLoss="24.26" maxSpeed="0.07"/>
    </personinfo>
    <tripinfo id="22" depart="240.00" departLane="23715308#1_1" departPos="0.20" departSpeed="0.00" departDelay="0.00" arrival="273.00" arrivalLane="377367118_1" arrivalPos="0.35" arrivalSpeed="4.10" duration="33.00" routeLength="114.80" waitingTime="9.00" waitingCount="2" stopTime="0.00" timeLoss="19.01" rerouteNo="0" devices="tripinfo_22 emissions_22" vType="DEFAULT_VEHTYPE" speedFactor="0.94" vaporized="">
        <emissions CO_abs="3638.979619" CO2_abs="94291.439062" HC_abs="18.776087" PMx_abs="1.996716" NOx_abs="41.236257" fuel_abs="30075.609814" electricity_abs="0"/>
    </tripinfo>
    <personinfo id="23" depart="46.00" type="DEFAULT_PEDTYPE" speedFactor="1.09" duration="235.00" waitingTime="0.00" timeLoss="25.90" traveltime="235.00">
        <walk depart="46.00" departPos="0.00" arrival="281.00" arrivalPos="0.10" duration="235.00" routeLength="188.13" timeLoss="25.90" maxSpeed="0.90"/>
    </personinfo>
    <personinfo id="9" depart="18.00" type="DEFAULT_PEDTYPE" speedFactor="0.93" duration="268.00" waitingTime="0.00" timeLoss="33.44" traveltime="268.00">
        <walk depart="18.00" departPos="0.00" arrival="286.00" arrivalPos="0.10" duration="268.00" routeLength="157.62" timeLoss="33.44" maxSpeed="0.67"/>
    </personinfo>
    <tripinfo id="24" depart="240.00" departLane="43365536_1" departPos="4.41" departSpeed="0.00" departDelay="0.00" arrival="286.00" arrivalLane="-230503369#1_1" arrivalPos="3.73" arrivalSpeed="8.21" duration="46.00" routeLength="234.41" waitingTime="6.00" waitingCount="2" stopTime="0.00" timeLoss="19.05" rerouteNo="0" devices="tripinfo_24 emissions_24" vType="DEFAULT_VEHTYPE" speedFactor="1.03" vaporized="">
        <emissions CO_abs="3860.850744" CO2_abs="126865.730817" HC_abs="20.528252" PMx_abs="2.422280" NOx_abs="53.834807" fuel_abs="40465.285979" electricity_abs="0"/>
    </tripinfo>
    <tripinfo id="20" depart="240.00" departLane="483872216_1" departPos="5.10" departSpeed="0.00" departDelay="0.00" arrival="288.00" arrivalLane="43118733#0_2" arrivalPos="0.50" arrivalSpeed="7.02" duration="48.00" routeLength="203.43" waitingTime="8.00" waitingCount="2" stopTime="0.00" timeLoss="24.65" rerouteNo="0" devices="tripinfo_20 emissions_20" vType="DEFAULT_VEHTYPE" speedFactor="0.97" vaporized="">
        <emissions CO_abs="4470.748922" CO2_abs="128904.484820" HC_abs="23.358694" PMx_abs="2.574893" NOx_abs="55.386603" fuel_abs="41115.792709" electricity_abs="0"/>
    </tripinfo>
    <tripinfo id="23" depart="240.00" departLane="480094741_1" departPos="5.10" departSpeed="0.00" departDelay="0.00" arrival="288.00" arrivalLane="43118733#1_3" arrivalPos="1.15" arrivalSpeed="8.90" duration="48.00" routeLength="218.61" waitingTime="10.00" waitingCount="1" stopTime="0.00" timeLoss="25.84" rerouteNo="0" devices="tripinfo_23 emissions_23" vType="DEFAULT_VEHTYPE" speedFactor="1.10" vaporized="">
        <emissions CO_abs="4592.643398" CO2_abs="138249.043895" HC_abs="24.124105" PMx_abs="2.690338" NOx_abs="58.917741" fuel_abs="44096.317787" electricity_abs="0"/>
    </tripinfo>
    <tripinfo id="16" depart="180.00" departLane="43118737#2_1" departPos="0.20" departSpeed="0.00" departDelay="0.00" arrival="296.00" arrivalLane="-230503369#0_1" arrivalPos="0.20" arrivalSpeed="8.22" duration="116.00" routeLength="386.83" waitingTime="51.00" waitingCount="2" stopTime="0.00" timeLoss="67.29" rerouteNo="0" devices="tripinfo_16 emissions_16" vType="DEFAULT_VEHTYPE" speedFactor="0.94" vaporized="">
        <emissions CO_abs="12415.341795" CO2_abs="285669.578503" HC_abs="63.161743" PMx_abs="5.960997" NOx_abs="124.049723" fuel_abs="91119.425270" electricity_abs="0"/>
    </tripinfo>
    <personinfo id="14" depart="28.00" type="DEFAULT_PEDTYPE" speedFactor="0.99" duration="270.00" waitingTime="0.00" timeLoss="39.53" traveltime="270.00">
        <walk depart="28.00" departPos="0.00" arrival="298.00" arrivalPos="0.10" duration="270.00" routeLength="193.47" timeLoss="39.53" maxSpeed="0.84"/>
    </personinfo>
    <personinfo id="24" depart="48.00" type="DEFAULT_PEDTYPE" speedFactor="1.04" duration="252.00" waitingTime="0.00" timeLoss="30.53" traveltime="252.00">
        <walk depart="48.00" departPos="0.00" arrival="300.00" arrivalPos="0.10" duration="252.00" routeLength="127.60" timeLoss="30.53" maxSpeed="0.58"/>
    </personinfo>
    <personinfo id="19" depart="38.00" type="DEFAULT_PEDTYPE" speedFactor="1.10" duration="262.00" waitingTime="0.00" timeLoss="33.88" traveltime="262.00">
        <walk depart="38.00" departPos="0.00" arrival="300.00" arrivalPos="4.07" duration="262.00" routeLength="147.38" timeLoss="33.88" maxSpeed="0.65"/>
    </personinfo>
    <personinfo id="21" depart="42.00" type="DEFAULT_PEDTYPE" speedFactor="1.03" duration="259.00" waitingTime="0.00" timeLoss="27.45" traveltime="259.00">
        <walk depart="42.00" departPos="0.00" arrival="301.00" arrivalPos="0.10" duration="259.00" routeLength="169.76" timeLoss="27.45" maxSpeed="0.73"/>
    </personinfo>
    <personinfo id="25" depart="50.00" type="DEFAULT_PEDTYPE" speedFactor="1.04" duration="261.00" waitingTime="0.00" timeLoss="36.93" traveltime="261.00">
        <walk depart="50.00" departPos="0.00" arrival="311.00" arrivalPos="1.66" duration="261.00" routeLength="109.84" timeLoss="36.93" maxSpeed="0.49"/>
    </personinfo>
    <tripinfo id="29" depart="300.00" departLane="43118738#0_1" departPos="0.20" departSpeed="0.00" departDelay="0.00" arrival="312.00" arrivalLane="43118733#0_1" arrivalPos="0.50" arrivalSpeed="6.08" duration="12.00" routeLength="52.31" waitingTime="1.00" waitingCount="1" stopTime="0.00" timeLoss="4.75" rerouteNo="0" devices="tripinfo_29 emissions_29" vType="DEFAULT_VEHTYPE" speedFactor="0.82" vaporized="">
        <emissions CO_abs="1069.846322" CO2_abs="29676.535941" HC_abs="5.559239" PMx_abs="0.585739" NOx_abs="12.747167" fuel_abs="9465.754741" electricity_abs="0"/>
    </tripinfo>
    <personinfo id="33" depart="66.00" type="DEFAULT_PEDTYPE" speedFactor="1.02" duration="249.00" waitingTime="0.00" timeLoss="29.16" traveltime="249.00">
        <walk depart="66.00" departPos="0.00" arrival="315.00" arrivalPos="18.17" duration="249.00" routeLength="147.99" timeLoss="29.16" maxSpeed="0.67"/>
    </personinfo>
    <personinfo id="11" depart="22.00" type="DEFAULT_PEDTYPE" speedFactor="1.15" duration="294.00" waitingTime="0.00" timeLoss="76.57" traveltime="294.00">
        <walk depart="22.00" departPos="0.00" arrival="316.00" arrivalPos="4.36" duration="294.00" routeLength="122.08" timeLoss="76.57" maxSpeed="0.56"/>
    </personinfo>
    <personinfo id="29" depart="58.00" type="DEFAULT_PEDTYPE" speedFactor="0.88" duration="262.00" waitingTime="0.00" timeLoss="40.42" traveltime="262.00">
        <walk depart="58.00" departPos="0.00" arrival="320.00" arrivalPos="3.76" duration="262.00" routeLength="303.03" timeLoss="40.42" maxSpeed="1.37"/>
    </personinfo>
    <personinfo id="10" depart="20.00" type="DEFAULT_PEDTYPE" speedFactor="1.18" duration="301.00" waitingTime="0.00" timeLoss="77.00" traveltime="301.00">
        <walk depart="20.00" departPos="0.00" arrival="321.00" arrivalPos="0.62" duration="301.00" routeLength="93.79" timeLoss="77.00" maxSpeed="0.42"/>
    </personinfo>
    <personinfo id="37" depart="74.00" type="DEFAULT_PEDTYPE" speedFactor="0.90" duration="253.00" waitingTime="0.00" timeLoss="27.88" traveltime="253.00">
        <walk depart="74.00" departPos="0.00" arrival="327.00" arrivalPos="0.15" duration="253.00" routeLength="99.72" timeLoss="27.88" maxSpeed="0.44"/>
    </personinfo>
    <personinfo id="47" depart="94.00" type="DEFAULT_PEDTYPE" speedFactor="0.91" duration="234.00" waitingTime="0.00" timeLoss="27.53" traveltime="234.00">
        <walk depart="94.00" departPos="0.00" arrival="328.00" arrivalPos="3.76" duration="234.00" routeLength="293.73" timeLoss="27.53" maxSpeed="1.42"/>
    </personinfo>
    <personinfo id="31" depart="62.00" type="DEFAULT_PEDTYPE" speedFactor="0.85" duration="267.00" waitingTime="0.00" timeLoss="27.87" traveltime="267.00">
        <walk depart="62.00" departPos="0.00" arrival="329.00" arrivalPos="2.62" duration="267.00" routeLength="29.30" timeLoss="27.87" maxSpeed="0.12"/>
    </personinfo>
    <personinfo id="30" depart="60.00" type="DEFAULT_PEDTYPE" speedFactor="0.85" duration="276.00" waitingTime="0.00" timeLoss="63.02" traveltime="276.00">
        <walk depart="60.00" departPos="0.00" arrival="336.00" arrivalPos="0.10" duration="276.00" routeLength="135.88" timeLoss="63.02" maxSpeed="0.64"/>
    </personinfo>
    <personinfo id="2" depart="4.00" type="DEFAULT_PEDTYPE" speedFactor="0.89" duration="332.00" waitingTime="0.00" timeLoss="106.52" traveltime="332.00">
        <walk depart="4.00" departPos="0.00" arrival="336.00" arrivalPos="4.22" duration="332.00" routeLength="123.03" timeLoss="106.52" maxSpeed="0.55"/>
    </personinfo>
    <personinfo id="27" depart="54.00" type="DEFAULT_PEDTYPE" speedFactor="1.00" duration="284.00" waitingTime="0.00" timeLoss="35.62" traveltime="284.00">
        <walk depart="54.00" departPos="0.00" arrival="338.00" arrivalPos="23.54" duration="284.00" routeLength="176.29" timeLoss="35.62" maxSpeed="0.71"/>
    </personinfo>
    <personinfo id="56" depart="112.00" type="DEFAULT_PEDTYPE" speedFactor="0.96" duration="231.00" waitingTime="0.00" timeLoss="22.11" traveltime="231.00">
        <walk depart="112.00" departPos="0.00" arrival="343.00" arrivalPos="30.49" duration="231.00" routeLength="61.81" timeLoss="22.11" maxSpeed="0.30"/>
    </personinfo>
    <personinfo id="8" depart="16.00" type="DEFAULT_PEDTYPE" speedFactor="1.13" duration="331.00" waitingTime="0.00" timeLoss="83.01" traveltime="331.00">
        <walk depart="16.00" departPos="0.00" arrival="347.00" arrivalPos="0.17" duration="331.00" routeLength="99.33" timeLoss="83.01" maxSpeed="0.40"/>
    </personinfo>
    <personinfo id="20" depart="40.00" type="DEFAULT_PEDTYPE" speedFactor="0.90" duration="310.00" waitingTime="0.00" timeLoss="74.85" traveltime="310.00">
        <walk depart="40.00" departPos="0.00" arrival="350.00" arrivalPos="4.54" duration="310.00" routeLength="140.86" timeLoss="74.85" maxSpeed="0.60"/>
    </personinfo>
    <personinfo id="4" depart="8.00" type="DEFAULT_PEDTYPE" speedFactor="0.83" duration="344.00" waitingTime="0.00" timeLoss="35.03" traveltime="344.00">
        <walk depart="8.00" departPos="0.00" arrival="352.00" arrivalPos="9.39" duration="344.00" routeLength="48.64" timeLoss="35.03" maxSpeed="0.16"/>
    </personinfo>
    <personinfo id="3" depart="6.00" type="DEFAULT_PEDTYPE" speedFactor="0.89" duration="352.00" waitingTime="0.00" timeLoss="105.57" traveltime="352.00">
        <walk depart="6.00" departPos="0.00" arrival="358.00" arrivalPos="0.10" duration="352.00" routeLength="43.29" timeLoss="105.57" maxSpeed="0.18"/>
    </personinfo>
    <personinfo id="17" depart="34.00" type="DEFAULT_PEDTYPE" speedFactor="0.97" duration="325.00" waitingTime="0.00" timeLoss="101.23" traveltime="325.00">
        <walk depart="34.00" departPos="0.00" arrival="359.00" arrivalPos="0.10" duration="325.00" routeLength="275.68" timeLoss="101.23" maxSpeed="1.23"/>
    </personinfo>
    <tripinfo id="21" depart="240.00" departLane="480094740#2_1" departPos="1.25" departSpeed="0.00" departDelay="0.00" arrival="364.00" arrivalLane="43154948_1" arrivalPos="0.67" arrivalSpeed="8.81" duration="124.00" routeLength="212.42" waitingTime="77.00" waitingCount="5" stopTime="0.00" timeLoss="99.97" rerouteNo="0" devices="tripinfo_21 emissions_21" vType="DEFAULT_VEHTYPE" speedFactor="1.07" vaporized="">
        <emissions CO_abs="16811.188312" CO2_abs="342784.452909" HC_abs="84.591549" PMx_abs="7.890357" NOx_abs="153.332001" fuel_abs="109337.637618" electricity_abs="0"/>
    </tripinfo>
    <personinfo id="26" depart="52.00" type="DEFAULT_PEDTYPE" speedFactor="1.09" duration="319.00" waitingTime="0.00" timeLoss="80.92" traveltime="319.00">
        <walk depart="52.00" departPos="0.00" arrival="371.00" arrivalPos="7.36" duration="319.00" routeLength="97.66" timeLoss="80.92" maxSpeed="0.41"/>
    </personinfo>
    <personinfo id="15" depart="30.00" type="DEFAULT_PEDTYPE" speedFactor="1.02" duration="343.00" waitingTime="0.00" timeLoss="111.40" traveltime="343.00">
        <walk depart="30.00" departPos="0.00" arrival="373.00" arrivalPos="3.68" duration="343.00" routeLength="140.32" timeLoss="111.40" maxSpeed="0.61"/>
    </personinfo>
    <tripinfo id="27" depart="300.00" departLane="23715308#0_1" departPos="0.20" departSpeed="0.00" departDelay="0.00" arrival="373.00" arrivalLane="111971057#1_1" arrivalPos="3.20" arrivalSpeed="7.16" duration="73.00" routeLength="112.20" waitingTime="53.00" waitingCount="2" stopTime="0.00" timeLoss="61.99" rerouteNo="0" devices="tripinfo_27 emissions_27" vType="DEFAULT_VEHTYPE" speedFactor="1.15" vaporized="">
        <emissions CO_abs="10334.640768" CO2_abs="198225.362340" HC_abs="51.702475" PMx_abs="4.614201" NOx_abs="88.848522" fuel_abs="63228.102338" electricity_abs="0"/>
    </tripinfo>
    <personinfo id="42" depart="84.00" type="DEFAULT_PEDTYPE" speedFactor="1.12" duration="290.00" waitingTime="0.00" timeLoss="49.56" traveltime="290.00">
        <walk depart="84.00" departPos="0.00" arrival="374.00" arrivalPos="0.10" duration="290.00" routeLength="120.11" timeLoss="49.56" maxSpeed="0.50"/>
    </personinfo>
    <tripinfo id="28" depart="300.00" departLane="230506725_1" departPos="0.20" departSpeed="0.00" departDelay="0.00" arrival="376.00" arrivalLane="498958807#1_1" arrivalPos="31.55" arrivalSpeed="7.93" duration="76.00" routeLength="181.60" waitingTime="42.00" waitingCount="2" stopTime="0.00" timeLoss="55.30" rerouteNo="0" devices="tripinfo_28 emissions_28" vType="DEFAULT_VEHTYPE" speedFactor="1.03" vaporized="">
        <emissions CO_abs="9710.861114" CO2_abs="212773.986037" HC_abs="49.202086" PMx_abs="4.746992" NOx_abs="94.277020" fuel_abs="67868.025425" electricity_abs="0"/>
    </tripinfo>
    <personinfo id="54" depart="108.00" type="DEFAULT_PEDTYPE" speedFactor="0.94" duration="269.00" waitingTime="0.00" timeLoss="50.05" traveltime="269.00">
        <walk depart="108.00" departPos="0.00" arrival="377.00" arrivalPos="8.58" duration="269.00" routeLength="42.83" timeLoss="50.05" maxSpeed="0.20"/>
    </personinfo>
    <personinfo id="7" depart="14.00" type="DEFAULT_PEDTYPE" speedFactor="0.95" duration="365.00" waitingTime="0.00" timeLoss="96.64" traveltime="365.00">
        <walk depart="14.00" departPos="0.00" arrival="379.00" arrivalPos="0.10" duration="365.00" routeLength="56.44" timeLoss="96.64" maxSpeed="0.21"/>
    </personinfo>
    <personinfo id="77" depart="154.00" type="DEFAULT_PEDTYPE" speedFactor="1.06" duration="226.00" waitingTime="0.00" timeLoss="23.11" traveltime="226.00">
        <walk depart="154.00" departPos="0.00" arrival="380.00" arrivalPos="0.10" duration="226.00" routeLength="32.56" timeLoss="23.11" maxSpeed="0.16"/>
    </personinfo>
    <personinfo id="6" depart="12.00" type="DEFAULT_PEDTYPE" speedFactor="0.92" duration="371.00" waitingTime="0.00" timeLoss="117.90" traveltime="371.00">
        <walk depart="12.00" departPos="0.00" arrival="383.00" arrivalPos="9.48" duration="371.00" routeLength="112.83" timeLoss="117.90" maxSpeed="0.45"/>
    </personinfo>
    <personinfo id="70" depart="140.00" type="DEFAULT_PEDTYPE" speedFactor="1.01" duration="246.00" waitingTime="0.00" timeLoss="26.88" traveltime="246.00">
        <walk depart="140.00" departPos="0.00" arrival="386.00" arrivalPos="0.10" duration="246.00" routeLength="43.42" timeLoss="26.88" maxSpeed="0.20"/>
    </personinfo>
    <personinfo id="63" depart="126.00" type="DEFAULT_PEDTYPE" speedFactor="1.00" duration="262.00" waitingTime="0.00" timeLoss="28.51" traveltime="262.00">
        <walk depart="126.00" departPos="0.00" arrival="388.00" arrivalPos="0.20" duration="262.00" routeLength="179.12" timeLoss="28.51" maxSpeed="0.77"/>
    </personinfo>
    <personinfo id="36" depart="72.00" type="DEFAULT_PEDTYPE" speedFactor="1.00" duration="317.00" waitingTime="0.00" timeLoss="104.60" traveltime="317.00">
        <walk depart="72.00" departPos="0.00" arrival="389.00" arrivalPos="0.10" duration="317.00" routeLength="182.22" timeLoss="104.60" maxSpeed="0.86"/>
    </personinfo>
    <personinfo id="12" depart="24.00" type="DEFAULT_PEDTYPE" speedFactor="1.01" duration="368.00" waitingTime="0.00" timeLoss="140.25" traveltime="368.00">
        <walk depart="24.00" departPos="0.00" arrival="392.00" arrivalPos="0.10" duration="368.00" routeLength="252.09" timeLoss="140.25" maxSpeed="1.11"/>
    </personinfo>
    <personinfo id="51" depart="102.00" type="DEFAULT_PEDTYPE" speedFactor="1.02" duration="290.00" waitingTime="0.00" timeLoss="46.83" traveltime="290.00">