<?xml version="1.0" encoding="UTF-8"?>

<!-- generated on 2025-04-25 09:54:46 by Eclipse SUMO GUI Version 1.20.0
<configuration xmlns:xsi="http://www.w3.org/2001/XMLSchema-instance" xsi:noNamespaceSchemaLocation="http://sumo.dlr.de/xsd/sumoConfiguration.xsd">

    <input>
        <net-file value="C:\Users\athar\OneDrive\Documents\SUMO\config\../data/network/trafalgar.net.xml"/>
        <route-files value="C:\Users\athar\OneDrive\Documents\SUMO\config\../scenarios/rain/vehicles.rou.xml,C:\Users\athar\OneDrive\Documents\SUMO\config\../scenarios/rain/pedestrians.rou.xml"/>
    </input>

    <output>
        <emission-output value="C:\Users\athar\OneDrive\Documents\SUMO\config\../output/rain/emissions.xml"/>
        <tripinfo-output value="C:\Users\athar\OneDrive\Documents\SUMO\config\../output/rain/tripinfo.xml"/>
    </output>

    <time>
        <begin value="0"/>
        <end value="3600"/>
    </time>

</configuration>
-->

<tripinfos xmlns:xsi="http://www.w3.org/2001/XMLSchema-instance" xsi:noNamespaceSchemaLocation="http://sumo.dlr.de/xsd/tripinfo_file.xsd">
    <tripinfo id="10.0" depart="0.00" departLane="480094740#1_1" departPos="3.76" departSpeed="0.00" departDelay="0.00" arrival="30.00" arrivalLane="43118738#1_2" arrivalPos="0.21" arrivalSpeed="4.42" duration="30.00" routeLength="106.23" waitingTime="0.00" waitingCount="0" stopTime="0.00" timeLoss="5.46" rerouteNo="0" devices="tripinfo_10.0 emissions_10.0" vType="DEFAULT_VEHTYPE" speedFactor="0.50" vaporized="">
        <emissions CO_abs="2130.115631" CO2_abs="56371.578552" HC_abs="10.985942" PMx_abs="1.032496" NOx_abs="23.787344" fuel_abs="17980.665567" electricity_abs="0"/>
    </tripinfo>
    <tripinfo id="11.0" depart="0.00" departLane="23715305#1_1" departPos="1.07" departSpeed="0.00" departDelay="0.00" arrival="30.00" arrivalLane="1008674254_1" arrivalPos="4.44" arrivalSpeed="4.26" duration="30.00" routeLength="108.79" waitingTime="0.00" waitingCount="0" stopTime="0.00" timeLoss="5.13" rerouteNo="0" devices="tripinfo_11.0 emissions_11.0" vType="DEFAULT_VEHTYPE" speedFactor="0.50" vaporized="">
        <emissions CO_abs="2197.010328" CO2_abs="55219.515164" HC_abs="11.257257" PMx_abs="0.992978" NOx_abs="23.186575" fuel_abs="17613.286177" electricity_abs="0"/>
    </tripinfo>
    <tripinfo id="1.0" depart="0.00" departLane="230506728_1" departPos="4.29" departSpeed="0.00" departDelay="0.00" arrival="49.00" arrivalLane="195406732#0_1" arrivalPos="0.20" arrivalSpeed="2.91" duration="49.00" routeLength="164.95" waitingTime="1.00" waitingCount="1" stopTime="0.00" timeLoss="10.83" rerouteNo="0" devices="tripinfo_1.0 emissions_1.0" vType="DEFAULT_VEHTYPE" speedFactor="0.50" vaporized="">
        <emissions CO_abs="3565.472107" CO2_abs="88569.214538" HC_abs="18.259518" PMx_abs="1.668491" NOx_abs="37.629094" fuel_abs="28250.734301" electricity_abs="0"/>
    </tripinfo>
    <tripinfo id="14.0" depart="0.00" departLane="483872216_1" departPos="5.10" departSpeed="0.00" departDelay="0.00" arrival="58.00" arrivalLane="43118733#0_2" arrivalPos="0.50" arrivalSpeed="4.10" duration="58.00" routeLength="203.43" waitingTime="0.00" waitingCount="0" stopTime="0.00" timeLoss="11.64" rerouteNo="0" devices="tripinfo_14.0 emissions_14.0" vType="DEFAULT_VEHTYPE" speedFactor="0.50" vaporized="">
        <emissions CO_abs="3587.116968" CO2_abs="94723.580679" HC_abs="18.500040" PMx_abs="1.759273" NOx_abs="40.131118" fuel_abs="30213.660506" electricity_abs="0"/>
    </tripinfo>
    <tripinfo id="17.0" depart="60.00" departLane="23715308#1_1" departPos="0.20" departSpeed="0.00" departDelay="0.00" arrival="100.00" arrivalLane="377367118_1" arrivalPos="0.35" arrivalSpeed="4.34" duration="40.00" routeLength="114.80" waitingTime="6.00" waitingCount="1" stopTime="0.00" timeLoss="13.32" rerouteNo="0" devices="tripinfo_17.0 emissions_17.0" vType="DEFAULT_VEHTYPE" speedFactor="0.50" vaporized="">
        <emissions CO_abs="3583.855757" CO2_abs="80663.334931" HC_abs="18.175149" PMx_abs="1.629909" NOx_abs="34.876813" fuel_abs="25729.109538" electricity_abs="0"/>
    </tripinfo>
    <tripinfo id="0.0" depart="0.00" departLane="43118737#2_1" departPos="0.20" departSpeed="0.00" departDelay="0.00" arrival="123.00" arrivalLane="-230503369#0_1" arrivalPos="0.20" arrivalSpeed="4.32" duration="123.00" routeLength="386.83" waitingTime="13.00" waitingCount="1" stopTime="0.00" timeLoss="32.41" rerouteNo="0" devices="tripinfo_0.0 emissions_0.0" vType="DEFAULT_VEHTYPE" speedFactor="0.50" vaporized="">
        <emissions CO_abs="9145.129323" CO2_abs="213967.565418" HC_abs="46.537950" PMx_abs="4.133726" NOx_abs="91.435605" fuel_abs="68249.011245" electricity_abs="0"/>
    </tripinfo>
    <tripinfo id="18.0" depart="60.00" departLane="480094741_1" departPos="5.10" departSpeed="0.00" departDelay="0.00" arrival="132.00" arrivalLane="43118733#1_2" arrivalPos="1.15" arrivalSpeed="3.49" duration="72.00" routeLength="218.61" waitingTime="13.00" waitingCount="1" stopTime="0.00" timeLoss="22.83" rerouteNo="0" devices="tripinfo_18.0 emissions_18.0" vType="DEFAULT_VEHTYPE" speedFactor="0.50" vaporized="">
        <emissions CO_abs="6208.418859" CO2_abs="138460.118227" HC_abs="31.441485" PMx_abs="2.733046" NOx_abs="59.467953" fuel_abs="44164.604043" electricity_abs="0"/>
    </tripinfo>
    <tripinfo id="20.0" depart="60.00" departLane="43365536_1" departPos="4.41" departSpeed="0.00" departDelay="0.00" arrival="134.00" arrivalLane="-230503369#1_1" arrivalPos="3.73" arrivalSpeed="3.72" duration="74.00" routeLength="234.41" waitingTime="3.00" waitingCount="2" stopTime="0.00" timeLoss="17.46" rerouteNo="0" devices="tripinfo_20.0 emissions_20.0" vType="DEFAULT_VEHTYPE" speedFactor="0.50" vaporized="">
        <emissions CO_abs="5360.099858" CO2_abs="129443.941755" HC_abs="27.375788" PMx_abs="2.512633" NOx_abs="55.437474" fuel_abs="41288.472732" electricity_abs="0"/>
    </tripinfo>
    <tripinfo id="15.0" depart="60.00" departLane="480094740#2_1" departPos="1.25" departSpeed="0.00" departDelay="0.00" arrival="135.00" arrivalLane="43154948_1" arrivalPos="0.67" arrivalSpeed="3.21" duration="75.00" routeLength="212.42" waitingTime="11.00" waitingCount="1" stopTime="0.00" timeLoss="25.83" rerouteNo="0" devices="tripinfo_15.0 emissions_15.0" vType="DEFAULT_VEHTYPE" speedFactor="0.50" vaporized="">
        <emissions CO_abs="6145.492763" CO2_abs="138922.397474" HC_abs="31.178447" PMx_abs="2.796137" NOx_abs="60.019419" fuel_abs="44311.942566" electricity_abs="0"/>
    </tripinfo>
    <tripinfo id="27.0" depart="120.00" departLane="43118738#0_1" departPos="0.20" departSpeed="0.00" departDelay="0.00" arrival="135.00" arrivalLane="43118733#0_1" arrivalPos="0.50" arrivalSpeed="3.20" duration="15.00" routeLength="52.31" waitingTime="0.00" waitingCount="0" stopTime="0.00" timeLoss="2.70" rerouteNo="0" devices="tripinfo_27.0 emissions_27.0" vType="DEFAULT_VEHTYPE" speedFactor="0.50" vaporized="">
        <emissions CO_abs="991.641556" CO2_abs="26281.405261" HC_abs="5.117465" PMx_abs="0.492776" NOx_abs="11.163125" fuel_abs="8382.883582" electricity_abs="0"/>
    </tripinfo>
    <tripinfo id="22.0" depart="60.00" departLane="-483872216_1" departPos="5.10" departSpeed="0.00" departDelay="0.00" arrival="140.00" arrivalLane="195406732#1_1" arrivalPos="22.77" arrivalSpeed="3.58" duration="80.00" routeLength="277.22" waitingTime="0.00" waitingCount="0" stopTime="0.00" timeLoss="15.44" rerouteNo="0" devices="tripinfo_22.0 emissions_22.0" vType="DEFAULT_VEHTYPE" speedFactor="0.50" vaporized="">
        <emissions CO_abs="5631.727045" CO2_abs="140584.909529" HC_abs="28.846977" PMx_abs="2.594790" NOx_abs="59.414898" fuel_abs="44842.110703" electricity_abs="0"/>
    </tripinfo>
    <tripinfo id="25.0" depart="120.00" departLane="23715308#0_1" departPos="0.20" departSpeed="0.00" departDelay="0.00" arrival="152.00" arrivalLane="111971057#1_1" arrivalPos="3.20" arrivalSpeed="4.27" duration="32.00" routeLength="112.20" waitingTime="0.00" waitingCount="0" stopTime="0.00" timeLoss="5.98" rerouteNo="0" devices="tripinfo_25.0 emissions_25.0" vType="DEFAULT_VEHTYPE" speedFactor="0.50" vaporized="">
        <emissions CO_abs="2354.196621" CO2_abs="60191.301336" HC_abs="12.091069" PMx_abs="1.102799" NOx_abs="25.402830" fuel_abs="19199.080693" electricity_abs="0"/>
    </tripinfo>
    <tripinfo id="26.0" depart="120.00" departLane="230506725_1" departPos="0.20" departSpeed="0.00" departDelay="0.00" arrival="170.00" arrivalLane="498958807#1_1" arrivalPos="31.55" arrivalSpeed="4.03" duration="50.00" routeLength="181.60" waitingTime="0.00" waitingCount="0" stopTime="0.00" timeLoss="8.19" rerouteNo="0" devices="tripinfo_26.0 emissions_26.0" vType="DEFAULT_VEHTYPE" speedFactor="0.50" vaporized="">
        <emissions CO_abs="2948.248223" CO2_abs="78447.851511" HC_abs="15.213176" PMx_abs="1.425360" NOx_abs="33.042863" fuel_abs="25022.266826" electricity_abs="0"/>
    </tripinfo>
    <tripinfo id="33.0" depart="180.00" departLane="230503369#2_1" departPos="5.10" departSpeed="0.00" departDelay="0.00" arrival="204.00" arrivalLane="-230503369#0_1" arrivalPos="0.20" arrivalSpeed="4.17" duration="24.00" routeLength="64.18" waitingTime="0.00" waitingCount="0" stopTime="0.00" timeLoss="5.92" rerouteNo="0" devices="tripinfo_33.0 emissions_33.0" vType="DEFAULT_VEHTYPE" speedFactor="0.50" vaporized="">
        <emissions CO_abs="1875.056296" CO2_abs="46035.992902" HC_abs="9.595162" PMx_abs="0.896753" NOx_abs="19.751311" fuel_abs="14683.983146" electricity_abs="0"/>
    </tripinfo>
    <tripinfo id="30.0" depart="180.00" departLane="817967122_1" departPos="4.36" departSpeed="0.00" departDelay="0.00" arrival="217.00" arrivalLane="43118734_2" arrivalPos="0.20" arrivalSpeed="3.22" duration="37.00" routeLength="139.59" waitingTime="0.00" waitingCount="0" stopTime="0.00" timeLoss="5.59" rerouteNo="0" devices="tripinfo_30.0 emissions_30.0" vType="DEFAULT_VEHTYPE" speedFactor="0.50" vaporized="">
        <emissions CO_abs="2439.064003" CO2_abs="63015.094977" HC_abs="12.534072" PMx_abs="1.111133" NOx_abs="26.325932" fuel_abs="20099.811698" electricity_abs="0"/>
    </tripinfo>
    <tripinfo id="29.0" depart="180.00" departLane="1065112866_1" departPos="0.20" departSpeed="0.00" departDelay="0.00" arrival="233.00" arrivalLane="23715305#1_1" arrivalPos="1.07" arrivalSpeed="3.50" duration="53.00" routeLength="144.85" waitingTime="5.00" waitingCount="3" stopTime="0.00" timeLoss="19.89" rerouteNo="0" devices="tripinfo_29.0 emissions_29.0" vType="DEFAULT_VEHTYPE" speedFactor="0.50" vaporized="">
        <emissions CO_abs="4528.572400" CO2_abs="103668.790007" HC_abs="23.012582" PMx_abs="2.116972" NOx_abs="44.989972" fuel_abs="33067.062242" electricity_abs="0"/>
    </tripinfo>
    <tripinfo id="24.0" depart="120.00" departLane="43118737#1_1" departPos="0.11" departSpeed="0.00" departDelay="0.00" arrival="241.00" arrivalLane="23715304#2_1" arrivalPos="0.20" arrivalSpeed="4.01" duration="121.00" routeLength="385.91" waitingTime="7.00" waitingCount="3" stopTime="0.00" timeLoss="32.73" rerouteNo="0" devices="tripinfo_24.0 emissions_24.0" vType="DEFAULT_VEHTYPE" speedFactor="0.50" vaporized="">
        <emissions CO_abs="9542.721693" CO2_abs="225546.063963" HC_abs="48.619409" PMx_abs="4.374354" NOx_abs="96.502170" fuel_abs="71942.111171" electricity_abs="0"/>
    </tripinfo>
    <tripinfo id="32.0" depart="180.00" departLane="483872216_1" departPos="5.10" departSpeed="0.00" departDelay="0.00" arrival="248.00" arrivalLane="4369049#2_1" arrivalPos="13.94" arrivalSpeed="4.19" duration="68.00" routeLength="174.75" waitingTime="20.00" waitingCount="1" stopTime="0.00" timeLoss="28.81" rerouteNo="0" devices="tripinfo_32.0 emissions_32.0" vType="DEFAULT_VEHTYPE" speedFactor="0.50" vaporized="">
        <emissions CO_abs="6886.464737" CO2_abs="143644.775658" HC_abs="34.670235" PMx_abs="3.009927" NOx_abs="62.659102" fuel_abs="45818.451139" electricity_abs="0"/>
    </tripinfo>
    <personinfo id="0" depart="0.00" type="DEFAULT_PEDTYPE" speedFactor="1.05" duration="253.00" waitingTime="0.00" timeLoss="32.22" traveltime="253.00">
        <walk depart="0.00" departPos="0.00" arrival="253.00" arrivalPos="8.60" duration="253.00" routeLength="161.56" timeLoss="32.22" maxSpeed="0.73"/>
    </personinfo>
    <personinfo id="13" depart="26.00" type="DEFAULT_PEDTYPE" speedFactor="1.17" duration="246.00" waitingTime="0.00" timeLoss="24.26" traveltime="246.00">
        <walk depart="26.00" departPos="0.00" arrival="272.00" arrivalPos="1.29" duration="246.00" routeLength="15.09" timeLoss="24.26" maxSpeed="0.07"/>
    </personinfo>
    <tripinfo id="28.0" depart="120.00" departLane="111971057#0_1" departPos="0.24" departSpeed="0.00" departDelay="0.00" arrival="275.00" arrivalLane="43154948_1" arrivalPos="0.67" arrivalSpeed="3.83" duration="155.00" routeLength="282.32" waitingTime="66.00" waitingCount="5" stopTime="0.00" timeLoss="89.02" rerouteNo="0" devices="tripinfo_28.0 emissions_28.0" vType="DEFAULT_VEHTYPE" speedFactor="0.50" vaporized="">
        <emissions CO_abs="17593.888917" CO2_abs="338797.860554" HC_abs="87.972370" PMx_abs="7.519127" NOx_abs="150.129108" fuel_abs="108066.946033" electricity_abs="0"/>
    </tripinfo>
    <personinfo id="9" depart="18.00" type="DEFAULT_PEDTYPE" speedFactor="0.93" duration="265.00" waitingTime="0.00" timeLoss="30.44" traveltime="265.00">
        <walk depart="18.00" departPos="0.00" arrival="283.00" arrivalPos="0.10" duration="265.00" routeLength="157.62" timeLoss="30.44" maxSpeed="0.67"/>
    </personinfo>
    <personinfo id="23" depart="46.00" type="DEFAULT_PEDTYPE" speedFactor="1.09" duration="237.00" waitingTime="0.00" timeLoss="27.90" traveltime="237.00">
        <walk depart="46.00" departPos="0.00" arrival="283.00" arrivalPos="0.10" duration="237.00" routeLength="188.13" timeLoss="27.90" maxSpeed="0.90"/>
    </personinfo>
    <tripinfo id="3.0" depart="180.00" departLane="49796163_1" departPos="2.26" departSpeed="0.00" departDelay="0.00" arrival="290.00" arrivalLane="-4256546_1" arrivalPos="10.09" arrivalSpeed="3.41" duration="110.00" routeLength="304.15" waitingTime="23.00" waitingCount="2" stopTime="0.00" timeLoss="40.08" rerouteNo="0" devices="tripinfo_3.0 emissions_3.0" vType="DEFAULT_VEHTYPE" speedFactor="0.50" vaporized="">
        <emissions CO_abs="9680.861298" CO2_abs="209288.877938" HC_abs="48.897539" PMx_abs="4.282885" NOx_abs="90.754160" fuel_abs="66756.868490" electricity_abs="0"/>
    </tripinfo>
    <tripinfo id="37.0" depart="240.00" departLane="43118738#0_1" departPos="0.20" departSpeed="0.00" departDelay="0.00" arrival="298.00" arrivalLane="23715305#2_1" arrivalPos="22.77" arrivalSpeed="3.84" duration="58.00" routeLength="134.12" waitingTime="16.00" waitingCount="2" stopTime="0.00" timeLoss="27.81" rerouteNo="0" devices="tripinfo_37.0 emissions_37.0" vType="DEFAULT_VEHTYPE" speedFactor="0.50" vaporized="">
        <emissions CO_abs="5746.152015" CO2_abs="116311.145129" HC_abs="28.859626" PMx_abs="2.523417" NOx_abs="51.244532" fuel_abs="37099.842331" electricity_abs="0"/>
    </tripinfo>
    <personinfo id="14" depart="28.00" type="DEFAULT_PEDTYPE" speedFactor="0.99" duration="273.00" waitingTime="0.00" timeLoss="42.53" traveltime="273.00">
        <walk depart="28.00" departPos="0.00" arrival="301.00" arrivalPos="0.10" duration="273.00" routeLength="193.47" timeLoss="42.53" maxSpeed="0.84"/>
    </personinfo>
    <personinfo id="21" depart="42.00" type="DEFAULT_PEDTYPE" speedFactor="1.03" duration="259.00" waitingTime="0.00" timeLoss="27.45" traveltime="259.00">
        <walk depart="42.00" departPos="0.00" arrival="301.00" arrivalPos="0.10" duration="259.00" routeLength="169.76" timeLoss="27.45" maxSpeed="0.73"/>
    </personinfo>
    <personinfo id="19" depart="38.00" type="DEFAULT_PEDTYPE" speedFactor="1.10" duration="263.00" waitingTime="0.00" timeLoss="34.88" traveltime="263.00">
        <walk depart="38.00" departPos="0.00" arrival="301.00" arrivalPos="4.07" duration="263.00" routeLength="147.38" timeLoss="34.88" maxSpeed="0.65"/>
    </personinfo>
    <personinfo id="25" depart="50.00" type="DEFAULT_PEDTYPE" speedFactor="1.04" duration="262.00" waitingTime="0.00" timeLoss="37.93" traveltime="262.00">
        <walk depart="50.00" departPos="0.00" arrival="312.00" arrivalPos="1.66" duration="262.00" routeLength="109.84" timeLoss="37.93" maxSpeed="0.49"/>
    </personinfo>
    <personinfo id="24" depart="48.00" type="DEFAULT_PEDTYPE" speedFactor="1.04" duration="264.00" waitingTime="0.00" timeLoss="42.53" traveltime="264.00">
        <walk depart="48.00" departPos="0.00" arrival="312.00" arrivalPos="0.10" duration="264.00" routeLength="127.60" timeLoss="42.53" maxSpeed="0.58"/>
    </personinfo>
    <personinfo id="11" depart="22.00" type="DEFAULT_PEDTYPE" speedFactor="1.15" duration="296.00" waitingTime="0.00" timeLoss="78.57" traveltime="296.00">
        <walk depart="22.00" departPos="0.00" arrival="318.00" arrivalPos="4.36" duration="296.00" routeLength="122.08" timeLoss="78.57" maxSpeed="0.56"/>
    </personinfo>
    <tripinfo id="40.0" depart="300.00" departLane="4256546_1" departPos="5.10" departSpeed="0.00" departDelay="0.00" arrival="318.00" arrivalLane="230503369#1_1" arrivalPos="3.73" arrivalSpeed="3.42" duration="18.00" routeLength="44.18" waitingTime="0.00" waitingCount="0" stopTime="0.00" timeLoss="5.66" rerouteNo="0" devices="tripinfo_40.0 emissions_40.0" vType="DEFAULT_VEHTYPE" speedFactor="0.50" vaporized="">
        <emissions CO_abs="1342.075701" CO2_abs="31523.955665" HC_abs="6.836591" PMx_abs="0.630427" NOx_abs="13.617107" fuel_abs="10055.135067" electricity_abs="0"/>
    </tripinfo>
    <personinfo id="29" depart="58.00" type="DEFAULT_PEDTYPE" speedFactor="0.88" duration="262.00" waitingTime="0.00" timeLoss="40.42" traveltime="262.00">
        <walk depart="58.00" departPos="0.00" arrival="320.00" arrivalPos="3.76" duration="262.00" routeLength="303.03" timeLoss="40.42" maxSpeed="1.37"/>
    </personinfo>
    <tripinfo id="38.0" depart="240.00" departLane="498185199#1_1" departPos="1.72" departSpeed="0.00" departDelay="0.00" arrival="320.00" arrivalLane="23715312#1_1" arrivalPos="3.41" arrivalSpeed="3.94" duration="80.00" routeLength="200.82" waitingTime="19.00" waitingCount="5" stopTime="0.00" timeLoss="34.16" rerouteNo="0" devices="tripinfo_38.0 emissions_38.0" vType="DEFAULT_VEHTYPE" speedFactor="0.50" vaporized="">
        <emissions CO_abs="7779.380433" CO2_abs="171528.682207" HC_abs="39.395205" PMx_abs="3.613883" NOx_abs="75.039028" fuel_abs="54712.284713" electricity_abs="0"/>
    </tripinfo>
    <personinfo id="37" depart="74.00" type="DEFAULT_PEDTYPE" speedFactor="0.90" duration="252.00" waitingTime="0.00" timeLoss="26.88" traveltime="252.00">
        <walk depart="74.00" departPos="0.00" arrival="326.00" arrivalPos="0.15" duration="252.00" routeLength="99.72" timeLoss="26.88" maxSpeed="0.44"/>
    </personinfo>
    <personinfo id="10" depart="20.00" type="DEFAULT_PEDTYPE" speedFactor="1.18" duration="306.00" waitingTime="0.00" timeLoss="82.00" traveltime="306.00">
        <walk depart="20.00" departPos="0.00" arrival="326.00" arrivalPos="0.62" duration="306.00" routeLength="93.79" timeLoss="82.00" maxSpeed="0.42"/>
    </personinfo>
    <personinfo id="47" depart="94.00" type="DEFAULT_PEDTYPE" speedFactor="0.91" duration="233.00" waitingTime="0.00" timeLoss="26.53" traveltime="233.00">
        <walk depart="94.00" departPos="0.00" arrival="327.00" arrivalPos="3.76" duration="233.00" routeLength="293.73" timeLoss="26.53" maxSpeed="1.42"/>
    </personinfo>
    <personinfo id="31" depart="62.00" type="DEFAULT_PEDTYPE" speedFactor="0.85" duration="268.00" waitingTime="0.00" timeLoss="28.87" traveltime="268.00">
        <walk depart="62.00" departPos="0.00" arrival="330.00" arrivalPos="2.62" duration="268.00" routeLength="29.30" timeLoss="28.87" maxSpeed="0.12"/>
    </personinfo>
    <personinfo id="2" depart="4.00" type="DEFAULT_PEDTYPE" speedFactor="0.89" duration="332.00" waitingTime="0.00" timeLoss="106.52" traveltime="332.00">
        <walk depart="4.00" departPos="0.00" arrival="336.00" arrivalPos="4.22" duration="332.00" routeLength="123.03" timeLoss="106.52" maxSpeed="0.55"/>
    </personinfo>
    <personinfo id="30" depart="60.00" type="DEFAULT_PEDTYPE" speedFactor="0.85" duration="277.00" waitingTime="0.00" timeLoss="64.02" traveltime="277.00">
        <walk depart="60.00" departPos="0.00" arrival="337.00" arrivalPos="0.10" duration="277.00" routeLength="135.88" timeLoss="64.02" maxSpeed="0.64"/>
    </personinfo>
    <tripinfo id="41.0" depart="300.00" departLane="43118733#1_1" departPos="1.15" departSpeed="0.00" departDelay="0.00" arrival="342.00" arrivalLane="49796163_1" arrivalPos="2.26" arrivalSpeed="4.08" duration="42.00" routeLength="96.90" waitingTime="12.00" waitingCount="2" stopTime="0.00" timeLoss="19.50" rerouteNo="0" devices="tripinfo_41.0 emissions_41.0" vType="DEFAULT_VEHTYPE" speedFactor="0.50" vaporized="">
        <emissions CO_abs="4733.127490" CO2_abs="97596.845111" HC_abs="23.804826" PMx_abs="2.062036" NOx_abs="42.672843" fuel_abs="31130.533946" electricity_abs="0"/>
    </tripinfo>
    <personinfo id="33" depart="66.00" type="DEFAULT_PEDTYPE" speedFactor="1.02" duration="278.00" waitingTime="0.00" timeLoss="58.16" traveltime="278.00">
        <walk depart="66.00" departPos="0.00" arrival="344.00" arrivalPos="18.17" duration="278.00" routeLength="147.99" timeLoss="58.16" maxSpeed="0.67"/>
    </personinfo>
    <personinfo id="56" depart="112.00" type="DEFAULT_PEDTYPE" speedFactor="0.96" duration="234.00" waitingTime="0.00" timeLoss="25.11" traveltime="234.00">
        <walk depart="112.00" departPos="0.00" arrival="346.00" arrivalPos="30.49" duration="234.00" routeLength="61.81" timeLoss="25.11" maxSpeed="0.30"/>
    </personinfo>
    <personinfo id="20" depart="40.00" type="DEFAULT_PEDTYPE" speedFactor="0.90" duration="310.00" waitingTime="0.00" timeLoss="74.85" traveltime="310.00">
        <walk depart="40.00" departPos="0.00" arrival="350.00" arrivalPos="4.54" duration="310.00" routeLength="140.86" timeLoss="74.85" maxSpeed="0.60"/>
    </personinfo>
    <personinfo id="4" depart="8.00" type="DEFAULT_PEDTYPE" speedFactor="0.83" duration="344.00" waitingTime="0.00" timeLoss="35.03" traveltime="344.00">
        <walk depart="8.00" departPos="0.00" arrival="352.00" arrivalPos="9.39" duration="344.00" routeLength="48.64" timeLoss="35.03" maxSpeed="0.16"/>
    </personinfo>
    <personinfo id="8" depart="16.00" type="DEFAULT_PEDTYPE" speedFactor="1.13" duration="337.00" waitingTime="0.00" timeLoss="89.01" traveltime="337.00">
        <walk depart="16.00" departPos="0.00" arrival="353.00" arrivalPos="0.17" duration="337.00" routeLength="99.33" timeLoss="89.01" maxSpeed="0.40"/>
    </personinfo>
    <personinfo id="27" depart="54.00" type="DEFAULT_PEDTYPE" speedFactor="1.00" duration="301.00" waitingTime="0.00" timeLoss="52.62" traveltime="301.00">
        <walk depart="54.00" departPos="0.00" arrival="355.00" arrivalPos="23.54" duration="301.00" routeLength="176.29" timeLoss="52.62" maxSpeed="0.71"/>
    </personinfo>
    <personinfo id="3" depart="6.00" type="DEFAULT_PEDTYPE" speedFactor="0.89" duration="350.00" waitingTime="0.00" timeLoss="103.57" traveltime="350.00">
        <walk depart="6.00" departPos="0.00" arrival="356.00" arrivalPos="0.10" duration="350.00" routeLength="43.29" timeLoss="103.57" maxSpeed="0.18"/>
    </personinfo>
    <personinfo id="17" depart="34.00" type="DEFAULT_PEDTYPE" speedFactor="0.97" duration="324.00" waitingTime="0.00" timeLoss="100.23" traveltime="324.00">
        <walk depart="34.00" departPos="0.00" arrival="358.00" arrivalPos="0.10" duration="324.00" routeLength="275.68" timeLoss="100.23" maxSpeed="1.23"/>
    </personinfo>
    <tripinfo id="55.0" depart="360.00" departLane="483872217#2_1" departPos="0.13" departSpeed="0.00" departDelay="0.00" arrival="367.00" arrivalLane="230503369#1_1" arrivalPos="3.73" arrivalSpeed="4.27" duration="7.00" routeLength="20.12" waitingTime="0.00" waitingCount="0" stopTime="0.00" timeLoss="1.52" rerouteNo="0" devices="tripinfo_55.0 emissions_55.0" vType="DEFAULT_VEHTYPE" speedFactor="0.50" vaporized="">
        <emissions CO_abs="697.809376" CO2_abs="17091.196514" HC_abs="3.569532" PMx_abs="0.331211" NOx_abs="7.322661" fuel_abs="5451.538266" electricity_abs="0"/>
    </tripinfo>
    <personinfo id="6" depart="12.00" type="DEFAULT_PEDTYPE" speedFactor="0.92" duration="360.00" waitingTime="0.00" timeLoss="106.90" traveltime="360.00">
        <walk depart="12.00" departPos="0.00" arrival="372.00" arrivalPos="9.48" duration="360.00" routeLength="112.83" timeLoss="106.90" maxSpeed="0.45"/>
    </personinfo>
    <personinfo id="15" depart="30.00" type="DEFAULT_PEDTYPE" speedFactor="1.02" duration="342.00" waitingTime="0.00" timeLoss="110.40" traveltime="342.00">
        <walk depart="30.00" departPos="0.00" arrival="372.00" arrivalPos="3.68" duration="342.00" routeLength="140.32" timeLoss="110.40" maxSpeed="0.61"/>
    </personinfo>
    <personinfo id="26" depart="52.00" type="DEFAULT_PEDTYPE" speedFactor="1.09" duration="320.00" waitingTime="0.00" timeLoss="81.92" traveltime="320.00">
        <walk depart="52.00" departPos="0.00" arrival="372.00" arrivalPos="7.36" duration="320.00" routeLength="97.66" timeLoss="81.92" maxSpeed="0.41"/>
    </personinfo>
    <personinfo id="72" depart="144.00" type="DEFAULT_PEDTYPE" speedFactor="1.02" duration="230.00" waitingTime="0.00" timeLoss="21.37" traveltime="230.00">
        <walk depart="144.00" departPos="0.00" arrival="374.00" arrivalPos="15.22" duration="230.00" routeLength="75.24" timeLoss="21.37" maxSpeed="0.36"/>
    </personinfo>
    <personinfo id="42" depart="84.00" type="DEFAULT_PEDTYPE" speedFactor="1.12" duration="292.00" waitingTime="0.00" timeLoss="51.56" traveltime="292.00">
        <walk depart="84.00" departPos="0.00" arrival="376.00" arrivalPos="0.10" duration="292.00" routeLength="120.11" timeLoss="51.56" maxSpeed="0.50"/>
    </personinfo>
    <tripinfo id="43.0" depart="300.00" departLane="817967122_1" departPos="4.36" departSpeed="0.00" departDelay="0.00" arrival="378.00" arrivalLane="267213247#1_1" arrivalPos="3.23" arrivalSpeed="3.49" duration="78.00" routeLength="165.61" waitingTime="21.00" waitingCount="6" stopTime="0.00" timeLoss="40.35" rerouteNo="0" devices="tripinfo_43.0 emissions_43.0" vType="DEFAULT_VEHTYPE" speedFactor="0.50" vaporized="">
        <emissions CO_abs="8093.890580" CO2_abs="168560.857357" HC_abs="40.773751" PMx_abs="3.690534" NOx_abs="74.505439" fuel_abs="53765.779175" electricity_abs="0"/>
    </tripinfo>
    <personinfo id="7" depart="14.00" type="DEFAULT_PEDTYPE" speedFactor="0.95" duration="365.00" waitingTime="0.00" timeLoss="96.64" traveltime="365.00">
        <walk depart="14.00" departPos="0.00" arrival="379.00" arrivalPos="0.10" duration="365.00" routeLength="56.44" timeLoss="96.64" maxSpeed="0.21"/>
    </personinfo>
    <personinfo id="54" depart="108.00" type="DEFAULT_PEDTYPE" speedFactor="0.94" duration="271.00" waitingTime="0.00" timeLoss="52.05" traveltime="271.00">
        <walk depart="108.00" departPos="0.00" arrival="379.00" arrivalPos="8.58" duration="271.00" routeLength="42.83" timeLoss="52.05" maxSpeed="0.20"/>
    </personinfo>
    <personinfo id="77" depart="154.00" type="DEFAULT_PEDTYPE" speedFactor="1.06" duration="226.00" waitingTime="0.00" timeLoss="23.11" traveltime="226.00">
        <walk depart="154.00" departPos="0.00" arrival="380.00" arrivalPos="0.10" duration="226.00" routeLength="32.56" timeLoss="23.11" maxSpeed="0.16"/>
    </personinfo>
    <tripinfo id="34.0" depart="241.00" departLane="23715304#2_1" departPos="0.20" departSpeed="0.00" departDelay="1.00" arrival="381.00" arrivalLane="230503369#2_1" arrivalPos="7.52" arrivalSpeed="3.91" duration="140.00" routeLength="323.73" waitingTime="45.00" waitingCount="4" stopTime="0.00" timeLoss="66.42" rerouteNo="0" devices="tripinfo_34.0 emissions_34.0" vType="DEFAULT_VEHTYPE" speedFactor="0.50" vaporized="">
        <emissions CO_abs="14007.981536" CO2_abs="282677.775726" HC_abs="70.321588" PMx_abs="6.075410" NOx_abs="124.173581" fuel_abs="90166.007813" electricity_abs="0"/>
    </tripinfo>
    <personinfo id="70" depart="140.00" type="DEFAULT_PEDTYPE" speedFactor="1.01" duration="248.00" waitingTime="0.00" timeLoss="28.88" traveltime="248.00">
        <walk depart="140.00" departPos="0.00" arrival="388.00" arrivalPos="0.10" duration="248.00" routeLength="43.42" timeLoss="28.88" maxSpeed="0.20"/>
    </personinfo>
    <personinfo id="12" depart="24.00" type="DEFAULT_PEDTYPE" speedFactor="1.01" duration="366.00" waitingTime="0.00" timeLoss="138.25" traveltime="366.00">
        <walk depart="24.00" departPos="0.00" arrival="390.00" arrivalPos="0.10" duration="366.00" routeLength="252.09" timeLoss="138.25" maxSpeed="1.11"/>
    </personinfo>
    <personinfo id="36" depart="72.00" type="DEFAULT_PEDTYPE" speedFactor="1.00" duration="318.00" waitingTime="0.00" timeLoss="105.60" traveltime="318.00">
        <walk depart="72.00" departPos="0.00" arrival="390.00" arrivalPos="0.10" duration="318.00" routeLength="182.22" timeLoss="105.60" maxSpeed="0.86"/>
    </personinfo>
    <personinfo id="63" depart="126.00" type="DEFAULT_PEDTYPE" speedFactor="1.00" duration="265.00" waitingTime="0.00" timeLoss="31.51" traveltime="265.00">
        <walk depart="126.00" departPos="0.00" arrival="391.00" arrivalPos="0.20" duration="265.00" routeLength="179.12" timeLoss="31.51" maxSpeed="0.77"/>
    </personinfo>
    <personinfo id="64" depart="128.00" type="DEFAULT_PEDTYPE" speedFactor="1.02" duration="267.00" waitingTime="0.00" timeLoss="31.00" traveltime="267.00">
        <walk depart="128.00" departPos="0.00" arrival="395.00" arrivalPos="0.10" duration="267.00" routeLength="141.23" timeLoss="31.00" maxSpeed="0.60"/>
    </personinfo>