<?xml version="1.0" encoding="UTF-8"?>

<!-- generated on 2025-04-25 09:44:09 by Eclipse SUMO GUI Version 1.20.0
<configuration xmlns:xsi="http://www.w3.org/2001/XMLSchema-instance" xsi:noNamespaceSchemaLocation="http://sumo.dlr.de/xsd/sumoConfiguration.xsd">

    <input>
        <net-file value="C:\Users\athar\OneDrive\Documents\SUMO\config\../data/network/trafalgar.net.xml"/>
        <route-files value="C:\Users\athar\OneDrive\Documents\SUMO\config\../scenarios/baseline/vehicles.rou.xml,C:\Users\athar\OneDrive\Documents\SUMO\config\../scenarios/baseline/pedestrians.rou.xml"/>
    </input>

    <output>
        <emission-output value="C:\Users\athar\OneDrive\Documents\SUMO\config\../output/baseline/emissions.xml"/>
        <tripinfo-output value="C:\Users\athar\OneDrive\Documents\SUMO\config\../output/baseline/tripinfo.xml"/>
    </output>

    <time>
        <begin value="0"/>
        <end value="3600"/>
    </time>

</configuration>
-->

<tripinfos xmlns:xsi="http://www.w3.org/2001/XMLSchema-instance" xsi:noNamespaceSchemaLocation="http://sumo.dlr.de/xsd/tripinfo_file.xsd">
    <tripinfo id="10.0" depart="0.00" departLane="480094740#1_1" departPos="3.76" departSpeed="0.00" departDelay="0.00" arrival="30.00" arrivalLane="43118738#1_2" arrivalPos="0.21" arrivalSpeed="4.42" duration="30.00" routeLength="106.23" waitingTime="0.00" waitingCount="0" stopTime="0.00" timeLoss="5.46" rerouteNo="0" devices="tripinfo_10.0 emissions_10.0" vType="DEFAULT_VEHTYPE" speedFactor="0.50" vaporized="">
        <emissions CO_abs="2130.115631" CO2_abs="56371.578552" HC_abs="10.985942" PMx_abs="1.032496" NOx_abs="23.787344" fuel_abs="17980.665567" electricity_abs="0"/>
    </tripinfo>
    <tripinfo id="11.0" depart="0.00" departLane="23715305#1_1" departPos="1.07" departSpeed="0.00" departDelay="0.00" arrival="30.00" arrivalLane="1008674254_1" arrivalPos="4.44" arrivalSpeed="4.26" duration="30.00" routeLength="108.79" waitingTime="0.00" waitingCount="0" stopTime="0.00" timeLoss="5.13" rerouteNo="0" devices="tripinfo_11.0 emissions_11.0" vType="DEFAULT_VEHTYPE" speedFactor="0.50" vaporized="">
        <emissions CO_abs="2197.010328" CO2_abs="55219.515164" HC_abs="11.257257" PMx_abs="0.992978" NOx_abs="23.186575" fuel_abs="17613.286177" electricity_abs="0"/>
    </tripinfo>
    <personinfo id="13" depart="26.00" type="DEFAULT_PEDTYPE" speedFactor="0.88" duration="14.00" waitingTime="0.00" timeLoss="1.61" traveltime="14.00">
        <walk depart="26.00" departPos="0.00" arrival="40.00" arrivalPos="1.29" duration="14.00" routeLength="15.09" timeLoss="1.61" maxSpeed="1.22"/>
    </personinfo>
    <tripinfo id="1.0" depart="0.00" departLane="230506728_1" departPos="4.29" departSpeed="0.00" departDelay="0.00" arrival="49.00" arrivalLane="195406732#0_1" arrivalPos="0.20" arrivalSpeed="2.91" duration="49.00" routeLength="164.95" waitingTime="1.00" waitingCount="1" stopTime="0.00" timeLoss="10.92" rerouteNo="0" devices="tripinfo_1.0 emissions_1.0" vType="DEFAULT_VEHTYPE" speedFactor="0.50" vaporized="">
        <emissions CO_abs="3563.219266" CO2_abs="88442.896371" HC_abs="18.246132" PMx_abs="1.665300" NOx_abs="37.570100" fuel_abs="28210.445588" electricity_abs="0"/>
    </tripinfo>
    <personinfo id="4" depart="8.00" type="DEFAULT_PEDTYPE" speedFactor="0.90" duration="44.00" waitingTime="0.00" timeLoss="5.12" traveltime="44.00">
        <walk depart="8.00" departPos="0.00" arrival="52.00" arrivalPos="9.39" duration="44.00" routeLength="48.64" timeLoss="5.12" maxSpeed="1.25"/>
    </personinfo>
    <tripinfo id="14.0" depart="0.00" departLane="483872216_1" departPos="5.10" departSpeed="0.00" departDelay="0.00" arrival="57.00" arrivalLane="43118733#0_2" arrivalPos="0.50" arrivalSpeed="4.37" duration="57.00" routeLength="203.43" waitingTime="0.00" waitingCount="0" stopTime="0.00" timeLoss="10.75" rerouteNo="0" devices="tripinfo_14.0 emissions_14.0" vType="DEFAULT_VEHTYPE" speedFactor="0.50" vaporized="">
        <emissions CO_abs="3535.354798" CO2_abs="94279.886659" HC_abs="18.252065" PMx_abs="1.734764" NOx_abs="39.842047" fuel_abs="30072.132859" electricity_abs="0"/>
    </tripinfo>
    <tripinfo id="17.0" depart="30.00" departLane="23715308#1_1" departPos="0.20" departSpeed="0.00" departDelay="0.00" arrival="66.00" arrivalLane="377367118_1" arrivalPos="0.35" arrivalSpeed="4.38" duration="36.00" routeLength="114.80" waitingTime="5.00" waitingCount="1" stopTime="0.00" timeLoss="9.46" rerouteNo="0" devices="tripinfo_17.0 emissions_17.0" vType="DEFAULT_VEHTYPE" speedFactor="0.50" vaporized="">
        <emissions CO_abs="3099.644423" CO2_abs="72102.638763" HC_abs="15.761909" PMx_abs="1.384791" NOx_abs="30.753083" fuel_abs="22998.524630" electricity_abs="0"/>
    </tripinfo>
    <tripinfo id="27.0" depart="60.00" departLane="43118738#0_1" departPos="0.20" departSpeed="0.00" departDelay="0.00" arrival="76.00" arrivalLane="43118733#0_1" arrivalPos="0.50" arrivalSpeed="3.45" duration="16.00" routeLength="52.31" waitingTime="0.00" waitingCount="0" stopTime="0.00" timeLoss="3.69" rerouteNo="0" devices="tripinfo_27.0 emissions_27.0" vType="DEFAULT_VEHTYPE" speedFactor="0.50" vaporized="">
        <emissions CO_abs="1118.591227" CO2_abs="27388.137713" HC_abs="5.719010" PMx_abs="0.516732" NOx_abs="11.646251" fuel_abs="8735.945028" electricity_abs="0"/>
    </tripinfo>
    <personinfo id="7" depart="14.00" type="DEFAULT_PEDTYPE" speedFactor="1.09" duration="75.00" waitingTime="0.00" timeLoss="37.78" traveltime="75.00">
        <walk depart="14.00" departPos="0.00" arrival="89.00" arrivalPos="0.10" duration="75.00" routeLength="56.44" timeLoss="37.78" maxSpeed="1.52"/>
    </personinfo>
    <personinfo id="18" depart="36.00" type="DEFAULT_PEDTYPE" speedFactor="1.02" duration="53.00" waitingTime="0.00" timeLoss="38.71" traveltime="53.00">
        <walk depart="36.00" departPos="0.00" arrival="89.00" arrivalPos="0.57" duration="53.00" routeLength="20.19" timeLoss="38.71" maxSpeed="1.41"/>
    </personinfo>
    <personinfo id="38" depart="76.00" type="DEFAULT_PEDTYPE" speedFactor="0.94" duration="15.00" waitingTime="0.00" timeLoss="3.58" traveltime="15.00">
        <walk depart="76.00" departPos="0.00" arrival="91.00" arrivalPos="2.49" duration="15.00" routeLength="14.91" timeLoss="3.58" maxSpeed="1.31"/>
    </personinfo>
    <tripinfo id="25.0" depart="60.00" departLane="23715308#0_1" departPos="0.20" departSpeed="0.00" departDelay="0.00" arrival="99.00" arrivalLane="111971057#1_1" arrivalPos="3.20" arrivalSpeed="4.27" duration="39.00" routeLength="112.20" waitingTime="2.00" waitingCount="1" stopTime="0.00" timeLoss="12.91" rerouteNo="0" devices="tripinfo_25.0 emissions_25.0" vType="DEFAULT_VEHTYPE" speedFactor="0.50" vaporized="">
        <emissions CO_abs="3105.673488" CO2_abs="75553.696910" HC_abs="15.879911" PMx_abs="1.490977" NOx_abs="32.507231" fuel_abs="24099.168566" electricity_abs="0"/>
    </tripinfo>
    <personinfo id="3" depart="6.00" type="DEFAULT_PEDTYPE" speedFactor="1.10" duration="95.00" waitingTime="0.00" timeLoss="66.72" traveltime="95.00">
        <walk depart="6.00" departPos="0.00" arrival="101.00" arrivalPos="0.10" duration="95.00" routeLength="43.29" timeLoss="66.72" maxSpeed="1.53"/>
    </personinfo>
    <tripinfo id="18.0" depart="30.00" departLane="480094741_1" departPos="5.10" departSpeed="0.00" departDelay="0.00" arrival="104.00" arrivalLane="43118733#1_1" arrivalPos="1.15" arrivalSpeed="3.88" duration="74.00" routeLength="218.61" waitingTime="12.00" waitingCount="1" stopTime="0.00" timeLoss="25.00" rerouteNo="0" devices="tripinfo_18.0 emissions_18.0" vType="DEFAULT_VEHTYPE" speedFactor="0.50" vaporized="">
        <emissions CO_abs="6644.434299" CO2_abs="149184.411089" HC_abs="33.671087" PMx_abs="2.931583" NOx_abs="64.006958" fuel_abs="47585.315241" electricity_abs="0"/>
    </tripinfo>
    <personinfo id="31" depart="62.00" type="DEFAULT_PEDTYPE" speedFactor="0.88" duration="44.00" waitingTime="0.00" timeLoss="20.09" traveltime="44.00">
        <walk depart="62.00" departPos="0.00" arrival="106.00" arrivalPos="2.62" duration="44.00" routeLength="29.30" timeLoss="20.09" maxSpeed="1.23"/>
    </personinfo>
    <tripinfo id="15.0" depart="30.00" departLane="480094740#2_1" departPos="1.25" departSpeed="0.00" departDelay="0.00" arrival="110.00" arrivalLane="43154948_1" arrivalPos="0.67" arrivalSpeed="4.02" duration="80.00" routeLength="212.42" waitingTime="15.00" waitingCount="3" stopTime="0.00" timeLoss="30.25" rerouteNo="0" devices="tripinfo_15.0 emissions_15.0" vType="DEFAULT_VEHTYPE" speedFactor="0.50" vaporized="">
        <emissions CO_abs="7285.426782" CO2_abs="160063.356402" HC_abs="36.867025" PMx_abs="3.308387" NOx_abs="69.633089" fuel_abs="51055.291625" electricity_abs="0"/>
    </tripinfo>
    <tripinfo id="20.0" depart="30.00" departLane="43365536_1" departPos="4.41" departSpeed="0.00" departDelay="0.00" arrival="113.00" arrivalLane="-230503369#1_1" arrivalPos="3.73" arrivalSpeed="3.89" duration="83.00" routeLength="234.41" waitingTime="12.00" waitingCount="2" stopTime="0.00" timeLoss="27.09" rerouteNo="0" devices="tripinfo_20.0 emissions_20.0" vType="DEFAULT_VEHTYPE" speedFactor="0.50" vaporized="">
        <emissions CO_abs="6694.441339" CO2_abs="150299.235425" HC_abs="33.934430" PMx_abs="3.005507" NOx_abs="64.815709" fuel_abs="47940.852179" electricity_abs="0"/>
    </tripinfo>
    <personinfo id="6" depart="12.00" type="DEFAULT_PEDTYPE" speedFactor="0.96" duration="106.00" waitingTime="0.00" timeLoss="21.12" traveltime="106.00">
        <walk depart="12.00" departPos="0.00" arrival="118.00" arrivalPos="9.48" duration="106.00" routeLength="112.83" timeLoss="21.12" maxSpeed="1.33"/>
    </personinfo>
    <tripinfo id="33.0" depart="95.00" departLane="230503369#2_1" departPos="5.10" departSpeed="0.00" departDelay="5.00" arrival="120.00" arrivalLane="-230503369#0_1" arrivalPos="0.20" arrivalSpeed="3.90" duration="25.00" routeLength="64.18" waitingTime="0.00" waitingCount="0" stopTime="0.00" timeLoss="7.57" rerouteNo="0" devices="tripinfo_33.0 emissions_33.0" vType="DEFAULT_VEHTYPE" speedFactor="0.50" vaporized="">
        <emissions CO_abs="1880.887821" CO2_abs="42868.783482" HC_abs="9.552673" PMx_abs="0.873049" NOx_abs="18.606279" fuel_abs="13673.791425" electricity_abs="0"/>
    </tripinfo>
    <personinfo id="50" depart="100.00" type="DEFAULT_PEDTYPE" speedFactor="0.97" duration="21.00" waitingTime="0.00" timeLoss="2.25" traveltime="21.00">
        <walk depart="100.00" departPos="0.00" arrival="121.00" arrivalPos="0.07" duration="21.00" routeLength="25.19" timeLoss="2.25" maxSpeed="1.34"/>
    </personinfo>
    <tripinfo id="22.0" depart="30.00" departLane="-483872216_1" departPos="5.10" departSpeed="0.00" departDelay="0.00" arrival="121.00" arrivalLane="195406732#1_1" arrivalPos="22.77" arrivalSpeed="4.22" duration="91.00" routeLength="277.22" waitingTime="7.00" waitingCount="1" stopTime="0.00" timeLoss="25.76" rerouteNo="0" devices="tripinfo_22.0 emissions_22.0" vType="DEFAULT_VEHTYPE" speedFactor="0.50" vaporized="">
        <emissions CO_abs="6228.272888" CO2_abs="149832.800074" HC_abs="31.806895" PMx_abs="2.962503" NOx_abs="64.480011" fuel_abs="47791.822559" electricity_abs="0"/>
    </tripinfo>
    <tripinfo id="30.0" depart="90.00" departLane="817967122_1" departPos="4.36" departSpeed="0.00" departDelay="0.00" arrival="128.00" arrivalLane="43118734_2" arrivalPos="0.20" arrivalSpeed="3.62" duration="38.00" routeLength="139.59" waitingTime="0.00" waitingCount="0" stopTime="0.00" timeLoss="6.15" rerouteNo="0" devices="tripinfo_30.0 emissions_30.0" vType="DEFAULT_VEHTYPE" speedFactor="0.50" vaporized="">
        <emissions CO_abs="2496.916213" CO2_abs="63861.484146" HC_abs="12.819819" PMx_abs="1.145655" NOx_abs="26.797810" fuel_abs="20369.777291" electricity_abs="0"/>
    </tripinfo>
    <tripinfo id="0.0" depart="0.00" departLane="43118737#2_1" departPos="0.20" departSpeed="0.00" departDelay="0.00" arrival="130.00" arrivalLane="-230503369#0_1" arrivalPos="0.20" arrivalSpeed="3.66" duration="130.00" routeLength="386.83" waitingTime="14.00" waitingCount="1" stopTime="0.00" timeLoss="38.90" rerouteNo="0" devices="tripinfo_0.0 emissions_0.0" vType="DEFAULT_VEHTYPE" speedFactor="0.50" vaporized="">
        <emissions CO_abs="9930.255954" CO2_abs="228977.479116" HC_abs="50.472575" PMx_abs="4.525322" NOx_abs="98.446120" fuel_abs="73036.688399" electricity_abs="0"/>
    </tripinfo>
    <personinfo id="0" depart="0.00" type="DEFAULT_PEDTYPE" speedFactor="1.05" duration="134.00" waitingTime="0.00" timeLoss="22.77" traveltime="134.00">
        <walk depart="0.00" departPos="0.00" arrival="134.00" arrivalPos="8.60" duration="134.00" routeLength="161.56" timeLoss="22.77" maxSpeed="1.45"/>
    </personinfo>
    <tripinfo id="26.0" depart="60.00" departLane="230506725_1" departPos="0.20" departSpeed="0.00" departDelay="0.00" arrival="138.00" arrivalLane="498958807#1_1" arrivalPos="31.55" arrivalSpeed="3.68" duration="78.00" routeLength="181.60" waitingTime="29.00" waitingCount="1" stopTime="0.00" timeLoss="36.46" rerouteNo="0" devices="tripinfo_26.0 emissions_26.0" vType="DEFAULT_VEHTYPE" speedFactor="0.50" vaporized="">
        <emissions CO_abs="7799.210454" CO2_abs="156161.002138" HC_abs="39.123007" PMx_abs="3.355666" NOx_abs="68.565592" fuel_abs="49810.869678" electricity_abs="0"/>
    </tripinfo>
    <tripinfo id="29.0" depart="90.00" departLane="1065112866_1" departPos="0.20" departSpeed="0.00" departDelay="0.00" arrival="142.00" arrivalLane="23715305#1_1" arrivalPos="1.07" arrivalSpeed="4.45" duration="52.00" routeLength="144.85" waitingTime="5.00" waitingCount="4" stopTime="0.00" timeLoss="19.45" rerouteNo="0" devices="tripinfo_29.0 emissions_29.0" vType="DEFAULT_VEHTYPE" speedFactor="0.50" vaporized="">
        <emissions CO_abs="5153.398455" CO2_abs="118300.783104" HC_abs="26.195221" PMx_abs="2.413971" NOx_abs="51.339661" fuel_abs="37734.196897" electricity_abs="0"/>
    </tripinfo>
    <personinfo id="9" depart="18.00" type="DEFAULT_PEDTYPE" speedFactor="1.04" duration="127.00" waitingTime="0.00" timeLoss="18.23" traveltime="127.00">
        <walk depart="18.00" departPos="0.00" arrival="145.00" arrivalPos="0.10" duration="127.00" routeLength="157.62" timeLoss="18.23" maxSpeed="1.45"/>
    </personinfo>
    <personinfo id="19" depart="38.00" type="DEFAULT_PEDTYPE" speedFactor="1.10" duration="114.00" waitingTime="0.00" timeLoss="17.16" traveltime="114.00">
        <walk depart="38.00" departPos="0.00" arrival="152.00" arrivalPos="4.07" duration="114.00" routeLength="147.38" timeLoss="17.16" maxSpeed="1.52"/>
    </personinfo>
    <personinfo id="10" depart="20.00" type="DEFAULT_PEDTYPE" speedFactor="1.09" duration="132.00" waitingTime="0.00" timeLoss="69.93" traveltime="132.00">
        <walk depart="20.00" departPos="0.00" arrival="152.00" arrivalPos="0.62" duration="132.00" routeLength="93.79" timeLoss="69.93" maxSpeed="1.51"/>
    </personinfo>
    <personinfo id="24" depart="48.00" type="DEFAULT_PEDTYPE" speedFactor="1.02" duration="106.00" waitingTime="0.00" timeLoss="16.25" traveltime="106.00">
        <walk depart="48.00" departPos="0.00" arrival="154.00" arrivalPos="0.10" duration="106.00" routeLength="127.60" timeLoss="16.25" maxSpeed="1.42"/>
    </personinfo>
    <personinfo id="62" depart="124.00" type="DEFAULT_PEDTYPE" speedFactor="1.06" duration="30.00" waitingTime="0.00" timeLoss="5.04" traveltime="30.00">
        <walk depart="124.00" departPos="0.00" arrival="154.00" arrivalPos="0.10" duration="30.00" routeLength="36.64" timeLoss="5.04" maxSpeed="1.47"/>
    </personinfo>
    <personinfo id="56" depart="112.00" type="DEFAULT_PEDTYPE" speedFactor="1.02" duration="55.00" waitingTime="0.00" timeLoss="11.45" traveltime="55.00">
        <walk depart="112.00" departPos="0.00" arrival="167.00" arrivalPos="30.49" duration="55.00" routeLength="61.81" timeLoss="11.45" maxSpeed="1.42"/>
    </personinfo>
    <tripinfo id="37.0" depart="120.00" departLane="43118738#0_1" departPos="0.20" departSpeed="0.00" departDelay="0.00" arrival="168.00" arrivalLane="23715305#2_1" arrivalPos="22.77" arrivalSpeed="4.13" duration="48.00" routeLength="134.12" waitingTime="2.00" waitingCount="1" stopTime="0.00" timeLoss="17.40" rerouteNo="0" devices="tripinfo_37.0 emissions_37.0" vType="DEFAULT_VEHTYPE" speedFactor="0.50" vaporized="">
        <emissions CO_abs="4258.708625" CO2_abs="96703.195463" HC_abs="21.621019" PMx_abs="1.969732" NOx_abs="41.935976" fuel_abs="30845.285512" electricity_abs="0"/>
    </tripinfo>
    <personinfo id="37" depart="74.00" type="DEFAULT_PEDTYPE" speedFactor="0.97" duration="98.00" waitingTime="0.00" timeLoss="24.21" traveltime="98.00">
        <walk depart="74.00" departPos="0.00" arrival="172.00" arrivalPos="0.15" duration="98.00" routeLength="99.72" timeLoss="24.21" maxSpeed="1.35"/>
    </personinfo>
    <personinfo id="8" depart="16.00" type="DEFAULT_PEDTYPE" speedFactor="1.04" duration="160.00" waitingTime="0.00" timeLoss="91.09" traveltime="160.00">
        <walk depart="16.00" departPos="0.00" arrival="176.00" arrivalPos="0.17" duration="160.00" routeLength="99.33" timeLoss="91.09" maxSpeed="1.44"/>
    </personinfo>
    <personinfo id="22" depart="44.00" type="DEFAULT_PEDTYPE" speedFactor="0.90" duration="136.00" waitingTime="0.00" timeLoss="105.31" traveltime="136.00">
        <walk depart="44.00" departPos="0.00" arrival="180.00" arrivalPos="0.17" duration="136.00" routeLength="38.31" timeLoss="105.31" maxSpeed="1.25"/>
    </personinfo>
    <personinfo id="77" depart="154.00" type="DEFAULT_PEDTYPE" speedFactor="0.93" duration="29.00" waitingTime="0.00" timeLoss="3.73" traveltime="29.00">
        <walk depart="154.00" departPos="0.00" arrival="183.00" arrivalPos="0.10" duration="29.00" routeLength="32.56" timeLoss="3.73" maxSpeed="1.29"/>
    </personinfo>
    <tripinfo id="24.0" depart="60.00" departLane="43118737#1_1" departPos="0.11" departSpeed="0.00" departDelay="0.00" arrival="183.00" arrivalLane="23715304#2_1" arrivalPos="0.20" arrivalSpeed="4.01" duration="123.00" routeLength="385.91" waitingTime="6.00" waitingCount="4" stopTime="0.00" timeLoss="34.92" rerouteNo="0" devices="tripinfo_24.0 emissions_24.0" vType="DEFAULT_VEHTYPE" speedFactor="0.50" vaporized="">
        <emissions CO_abs="9438.383266" CO2_abs="226565.794278" HC_abs="48.179759" PMx_abs="4.435350" NOx_abs="97.229197" fuel_abs="72267.230861" electricity_abs="0"/>
    </tripinfo>
    <personinfo id="21" depart="42.00" type="DEFAULT_PEDTYPE" speedFactor="1.00" duration="143.00" waitingTime="0.00" timeLoss="20.28" traveltime="143.00">
        <walk depart="42.00" departPos="0.00" arrival="185.00" arrivalPos="0.10" duration="143.00" routeLength="169.76" timeLoss="20.28" maxSpeed="1.38"/>
    </personinfo>
    <tripinfo id="55.0" depart="180.00" departLane="483872217#2_1" departPos="0.13" departSpeed="0.00" departDelay="0.00" arrival="188.00" arrivalLane="230503369#1_1" arrivalPos="3.73" arrivalSpeed="3.63" duration="8.00" routeLength="20.12" waitingTime="0.00" waitingCount="0" stopTime="0.00" timeLoss="2.30" rerouteNo="0" devices="tripinfo_55.0 emissions_55.0" vType="DEFAULT_VEHTYPE" speedFactor="0.50" vaporized="">
        <emissions CO_abs="834.446356" CO2_abs="20072.004355" HC_abs="4.260841" PMx_abs="0.395182" NOx_abs="8.638899" fuel_abs="6402.321969" electricity_abs="0"/>
    </tripinfo>
    <personinfo id="25" depart="50.00" type="DEFAULT_PEDTYPE" speedFactor="0.97" duration="139.00" waitingTime="0.00" timeLoss="57.43" traveltime="139.00">
        <walk depart="50.00" departPos="0.00" arrival="189.00" arrivalPos="1.66" duration="139.00" routeLength="109.84" timeLoss="57.43" maxSpeed="1.35"/>
    </personinfo>
    <personinfo id="48" depart="96.00" type="DEFAULT_PEDTYPE" speedFactor="1.02" duration="93.00" waitingTime="0.00" timeLoss="30.59" traveltime="93.00">
        <walk depart="96.00" departPos="0.00" arrival="189.00" arrivalPos="4.37" duration="93.00" routeLength="88.14" timeLoss="30.59" maxSpeed="1.41"/>
    </personinfo>
    <personinfo id="11" depart="22.00" type="DEFAULT_PEDTYPE" speedFactor="1.00" duration="168.00" waitingTime="0.00" timeLoss="79.88" traveltime="168.00">
        <walk depart="22.00" departPos="0.00" arrival="190.00" arrivalPos="4.36" duration="168.00" routeLength="122.08" timeLoss="79.88" maxSpeed="1.39"/>
    </personinfo>
    <tripinfo id="3.0" depart="90.00" departLane="49796163_1" departPos="2.26" departSpeed="0.00" departDelay="0.00" arrival="192.00" arrivalLane="-4256546_1" arrivalPos="10.09" arrivalSpeed="4.31" duration="102.00" routeLength="304.15" waitingTime="16.00" waitingCount="2" stopTime="0.00" timeLoss="32.57" rerouteNo="0" devices="tripinfo_3.0 emissions_3.0" vType="DEFAULT_VEHTYPE" speedFactor="0.50" vaporized="">
        <emissions CO_abs="8429.405209" CO2_abs="191440.873228" HC_abs="42.784185" PMx_abs="3.837625" NOx_abs="82.614008" fuel_abs="61063.702169" electricity_abs="0"/>
    </tripinfo>
    <personinfo id="35" depart="70.00" type="DEFAULT_PEDTYPE" speedFactor="1.02" duration="123.00" waitingTime="0.00" timeLoss="53.91" traveltime="123.00">
        <walk depart="70.00" departPos="0.00" arrival="193.00" arrivalPos="0.10" duration="123.00" routeLength="98.09" timeLoss="53.91" maxSpeed="1.42"/>
    </personinfo>
    <tripinfo id="40.0" depart="150.00" departLane="4256546_1" departPos="5.10" departSpeed="0.00" departDelay="0.00" arrival="193.00" arrivalLane="230503369#1_1" arrivalPos="3.73" arrivalSpeed="3.99" duration="43.00" routeLength="44.18" waitingTime="24.00" waitingCount="2" stopTime="0.00" timeLoss="30.36" rerouteNo="0" devices="tripinfo_40.0 emissions_40.0" vType="DEFAULT_VEHTYPE" speedFactor="0.50" vaporized="">
        <emissions CO_abs="5684.691387" CO2_abs="104787.019276" HC_abs="28.336255" PMx_abs="2.462683" NOx_abs="47.226036" fuel_abs="33424.104901" electricity_abs="0"/>
    </tripinfo>
    <tripinfo id="39.0" depart="120.00" departLane="230506725_1" departPos="0.20" departSpeed="0.00" departDelay="0.00" arrival="195.00" arrivalLane="230503369#0_1" arrivalPos="0.20" arrivalSpeed="2.55" duration="75.00" routeLength="217.37" waitingTime="8.00" waitingCount="3" stopTime="0.00" timeLoss="25.46" rerouteNo="0" devices="tripinfo_39.0 emissions_39.0" vType="DEFAULT_VEHTYPE" speedFactor="0.50" vaporized="">
        <emissions CO_abs="6314.928398" CO2_abs="143508.708845" HC_abs="32.051547" PMx_abs="2.864760" NOx_abs="61.871273" fuel_abs="45774.837665" electricity_abs="0"/>
    </tripinfo>
    <personinfo id="27" depart="54.00" type="DEFAULT_PEDTYPE" speedFactor="1.12" duration="142.00" waitingTime="0.00" timeLoss="28.60" traveltime="142.00">
        <walk depart="54.00" departPos="0.00" arrival="196.00" arrivalPos="23.54" duration="142.00" routeLength="176.29" timeLoss="28.60" maxSpeed="1.55"/>
    </personinfo>
    <personinfo id="23" depart="46.00" type="DEFAULT_PEDTYPE" speedFactor="1.14" duration="150.00" waitingTime="0.00" timeLoss="31.44" traveltime="150.00">
        <walk depart="46.00" departPos="0.00" arrival="196.00" arrivalPos="0.10" duration="150.00" routeLength="188.13" timeLoss="31.44" maxSpeed="1.59"/>
    </personinfo>
    <tripinfo id="41.0" depart="150.00" departLane="43118733#1_1" departPos="1.15" departSpeed="0.00" departDelay="0.00" arrival="198.00" arrivalLane="49796163_1" arrivalPos="2.26" arrivalSpeed="3.48" duration="48.00" routeLength="96.90" waitingTime="17.00" waitingCount="3" stopTime="0.00" timeLoss="25.77" rerouteNo="0" devices="tripinfo_41.0 emissions_41.0" vType="DEFAULT_VEHTYPE" speedFactor="0.50" vaporized="">
        <emissions CO_abs="5650.618089" CO2_abs="111757.163662" HC_abs="28.318739" PMx_abs="2.441031" NOx_abs="49.316391" fuel_abs="35647.321602" electricity_abs="0"/>
    </tripinfo>
    <personinfo id="70" depart="140.00" type="DEFAULT_PEDTYPE" speedFactor="0.95" duration="62.00" waitingTime="0.00" timeLoss="29.18" traveltime="62.00">
        <walk depart="140.00" departPos="0.00" arrival="202.00" arrivalPos="0.10" duration="62.00" routeLength="43.42" timeLoss="29.18" maxSpeed="1.32"/>
    </personinfo>
    <personinfo id="58" depart="116.00" type="DEFAULT_PEDTYPE" speedFactor="0.89" duration="86.00" waitingTime="0.00" timeLoss="9.83" traveltime="86.00">
        <walk depart="116.00" departPos="0.00" arrival="202.00" arrivalPos="0.10" duration="86.00" routeLength="94.34" timeLoss="9.83" maxSpeed="1.24"/>
    </personinfo>
    <personinfo id="54" depart="108.00" type="DEFAULT_PEDTYPE" speedFactor="1.04" duration="94.00" waitingTime="0.00" timeLoss="64.43" traveltime="94.00">
        <walk depart="108.00" departPos="0.00" arrival="202.00" arrivalPos="8.58" duration="94.00" routeLength="42.83" timeLoss="64.43" maxSpeed="1.45"/>
    </personinfo>
    <personinfo id="53" depart="106.00" type="DEFAULT_PEDTYPE" speedFactor="1.00" duration="97.00" waitingTime="0.00" timeLoss="61.31" traveltime="97.00">
        <walk depart="106.00" departPos="0.00" arrival="203.00" arrivalPos="11.38" duration="97.00" routeLength="49.65" timeLoss="61.31" maxSpeed="1.39"/>
    </personinfo>
    <personinfo id="72" depart="144.00" type="DEFAULT_PEDTYPE" speedFactor="1.07" duration="60.00" waitingTime="0.00" timeLoss="9.50" traveltime="60.00">
        <walk depart="144.00" departPos="0.00" arrival="204.00" arrivalPos="15.22" duration="60.00" routeLength="75.24" timeLoss="9.50" maxSpeed="1.49"/>
    </personinfo>
    <personinfo id="33" depart="66.00" type="DEFAULT_PEDTYPE" speedFactor="0.91" duration="139.00" waitingTime="0.00" timeLoss="22.50" traveltime="139.00">
        <walk depart="66.00" departPos="0.00" arrival="205.00" arrivalPos="18.17" duration="139.00" routeLength="147.99" timeLoss="22.50" maxSpeed="1.27"/>
    </personinfo>
    <personinfo id="2" depart="4.00" type="DEFAULT_PEDTYPE" speedFactor="0.89" duration="202.00" waitingTime="0.00" timeLoss="102.02" traveltime="202.00">
        <walk depart="4.00" departPos="0.00" arrival="206.00" arrivalPos="4.22" duration="202.00" routeLength="123.03" timeLoss="102.02" maxSpeed="1.23"/>
    </personinfo>
    <tripinfo id="43.0" depart="150.00" departLane="817967122_1" departPos="4.36" departSpeed="0.00" departDelay="0.00" arrival="209.00" arrivalLane="267213247#1_1" arrivalPos="3.23" arrivalSpeed="4.47" duration="59.00" routeLength="165.61" waitingTime="9.00" waitingCount="2" stopTime="0.00" timeLoss="21.67" rerouteNo="0" devices="tripinfo_43.0 emissions_43.0" vType="DEFAULT_VEHTYPE" speedFactor="0.50" vaporized="">
        <emissions CO_abs="5058.640904" CO2_abs="113574.470114" HC_abs="25.646939" PMx_abs="2.292409" NOx_abs="49.094500" fuel_abs="36226.754480" electricity_abs="0"/>
    </tripinfo>
    <personinfo id="101" depart="202.00" type="DEFAULT_PEDTYPE" speedFactor="0.96" duration="9.00" waitingTime="0.00" timeLoss="1.55" traveltime="9.00">
        <walk depart="202.00" departPos="0.00" arrival="211.00" arrivalPos="3.33" duration="9.00" routeLength="9.93" timeLoss="1.55" maxSpeed="1.33"/>
    </personinfo>
    <personinfo id="14" depart="28.00" type="DEFAULT_PEDTYPE" speedFactor="0.85" duration="186.00" waitingTime="0.00" timeLoss="22.20" traveltime="186.00">
        <walk depart="28.00" departPos="0.00" arrival="214.00" arrivalPos="0.10" duration="186.00" routeLength="193.47" timeLoss="22.20" maxSpeed="1.18"/>
    </personinfo>
    <personinfo id="36" depart="72.00" type="DEFAULT_PEDTYPE" speedFactor="1.02" duration="149.00" waitingTime="0.00" timeLoss="20.75" traveltime="149.00">
        <walk depart="72.00" departPos="0.00" arrival="221.00" arrivalPos="0.10" duration="149.00" routeLength="182.22" timeLoss="20.75" maxSpeed="1.42"/>
    </personinfo>
    <personinfo id="81" depart="162.00" type="DEFAULT_PEDTYPE" speedFactor="1.10" duration="59.00" waitingTime="0.00" timeLoss="10.58" traveltime="59.00">
        <walk depart="162.00" departPos="0.00" arrival="221.00" arrivalPos="2.54" duration="59.00" routeLength="73.73" timeLoss="10.58" maxSpeed="1.52"/>
    </personinfo>
    <tripinfo id="52.0" depart="190.00" departLane="230506725_1" departPos="0.20" departSpeed="0.00" departDelay="10.00" arrival="224.00" arrivalLane="43118734_2" arrivalPos="0.20" arrivalSpeed="3.23" duration="34.00" routeLength="36.85" waitingTime="22.00" waitingCount="1" stopTime="0.00" timeLoss="25.02" rerouteNo="0" devices="tripinfo_52.0 emissions_52.0" vType="DEFAULT_VEHTYPE" speedFactor="0.50" vaporized="">
        <emissions CO_abs="4795.168474" CO2_abs="86847.592875" HC_abs="23.859231" PMx_abs="2.017762" NOx_abs="38.984561" fuel_abs="27702.013658" electricity_abs="0"/>
    </tripinfo>
    <personinfo id="82" depart="164.00" type="DEFAULT_PEDTYPE" speedFactor="0.92" duration="62.00" waitingTime="0.00" timeLoss="11.10" traveltime="62.00">
        <walk depart="164.00" departPos="0.00" arrival="226.00" arrivalPos="2.11" duration="62.00" routeLength="65.18" timeLoss="11.10" maxSpeed="1.28"/>
    </personinfo>
    <tripinfo id="34.0" depart="120.00" departLane="23715304#2_1" departPos="0.20" departSpeed="0.00" departDelay="0.00" arrival="227.00" arrivalLane="230503369#2_1" arrivalPos="7.52" arrivalSpeed="3.49" duration="107.00" routeLength="323.73" waitingTime="12.00" waitingCount="4" stopTime="0.00" timeLoss="33.50" rerouteNo="0" devices="tripinfo_34.0 emissions_34.0" vType="DEFAULT_VEHTYPE" speedFactor="0.50" vaporized="">
        <emissions CO_abs="8379.707912" CO2_abs="199748.396819" HC_abs="42.757231" PMx_abs="3.986359" NOx_abs="86.144294" fuel_abs="63713.296301" electricity_abs="0"/>
    </tripinfo>
    <tripinfo id="61.0" depart="210.00" departLane="451852747_1" departPos="0.20" departSpeed="0.00" departDelay="0.00" arrival="229.00" arrivalLane="267215482#0_1" arrivalPos="2.30" arrivalSpeed="3.82" duration="19.00" routeLength="64.21" waitingTime="0.00" waitingCount="0" stopTime="0.00" timeLoss="4.60" rerouteNo="0" devices="tripinfo_61.0 emissions_61.0" vType="DEFAULT_VEHTYPE" speedFactor="0.50" vaporized="">