<?xml version="1.0" encoding="UTF-8"?>

<!-- generated on 2025-03-29 13:05:54 by Eclipse SUMO GUI Version 1.20.0
<configuration xmlns:xsi="http://www.w3.org/2001/XMLSchema-instance" xsi:noNamespaceSchemaLocation="http://sumo.dlr.de/xsd/sumoConfiguration.xsd">

    <input>
        <net-file value="C:\Users\athar\OneDrive\Documents\Sapan&apos;s Project\SUMO\config\../data/network/trafalgar.net.xml"/>
        <route-files value="C:\Users\athar\OneDrive\Documents\Sapan&apos;s Project\SUMO\config\../scenarios/baseline/vehicles.rou.xml,C:\Users\athar\OneDrive\Documents\Sapan&apos;s Project\SUMO\config\../scenarios/baseline/pedestrians.rou.xml"/>
    </input>

    <output>
        <emission-output value="C:\Users\athar\OneDrive\Documents\Sapan&apos;s Project\SUMO\config\../output/baseline/emissions.xml"/>
        <tripinfo-output value="C:\Users\athar\OneDrive\Documents\Sapan&apos;s Project\SUMO\config\../output/baseline/tripinfo.xml"/>
    </output>

    <time>
        <begin value="0"/>
        <end value="3600"/>
    </time>

</configuration>
-->

<tripinfos xmlns:xsi="http://www.w3.org/2001/XMLSchema-instance" xsi:noNamespaceSchemaLocation="http://sumo.dlr.de/xsd/tripinfo_file.xsd">
    <tripinfo id="11.0" depart="0.00" departLane="23715305#1_1" departPos="1.07" departSpeed="0.00" departDelay="0.00" arrival="14.00" arrivalLane="1008674254_1" arrivalPos="4.44" arrivalSpeed="9.47" duration="14.00" routeLength="108.79" waitingTime="0.00" waitingCount="0" stopTime="0.00" timeLoss="2.21" rerouteNo="0" devices="tripinfo_11.0 emissions_11.0" vType="DEFAULT_VEHTYPE" speedFactor="1.08" vaporized="">
        <emissions CO_abs="873.330527" CO2_abs="42424.053292" HC_abs="4.963962" PMx_abs="0.748458" NOx_abs="17.566541" fuel_abs="13531.447905" electricity_abs="0"/>
    </tripinfo>
    <tripinfo id="17.0" depart="0.00" departLane="23715308#1_1" departPos="0.20" departSpeed="0.00" departDelay="0.00" arrival="16.00" arrivalLane="377367118_1" arrivalPos="0.35" arrivalSpeed="7.86" duration="16.00" routeLength="114.80" waitingTime="0.00" waitingCount="0" stopTime="0.00" timeLoss="2.98" rerouteNo="0" devices="tripinfo_17.0 emissions_17.0" vType="DEFAULT_VEHTYPE" speedFactor="1.05" vaporized="">
        <emissions CO_abs="915.613830" CO2_abs="42011.170544" HC_abs="5.140155" PMx_abs="0.715700" NOx_abs="17.248683" fuel_abs="13399.815825" electricity_abs="0"/>
    </tripinfo>
    <tripinfo id="10.0" depart="0.00" departLane="480094740#1_1" departPos="3.76" departSpeed="0.00" departDelay="0.00" arrival="20.00" arrivalLane="43118738#1_2" arrivalPos="0.21" arrivalSpeed="7.76" duration="20.00" routeLength="106.23" waitingTime="0.00" waitingCount="0" stopTime="0.00" timeLoss="7.70" rerouteNo="0" devices="tripinfo_10.0 emissions_10.0" vType="DEFAULT_VEHTYPE" speedFactor="1.01" vaporized="">
        <emissions CO_abs="1602.204508" CO2_abs="51497.326264" HC_abs="8.487817" PMx_abs="0.965205" NOx_abs="21.727221" fuel_abs="16425.708683" electricity_abs="0"/>
    </tripinfo>
    <tripinfo id="1.0" depart="0.00" departLane="230506728_1" departPos="4.29" departSpeed="0.00" departDelay="0.00" arrival="26.00" arrivalLane="195406732#0_1" arrivalPos="0.20" arrivalSpeed="5.58" duration="26.00" routeLength="164.95" waitingTime="0.00" waitingCount="0" stopTime="0.00" timeLoss="5.95" rerouteNo="0" devices="tripinfo_1.0 emissions_1.0" vType="DEFAULT_VEHTYPE" speedFactor="0.94" vaporized="">
        <emissions CO_abs="1726.486941" CO2_abs="72013.478818" HC_abs="9.526899" PMx_abs="1.264750" NOx_abs="29.908290" fuel_abs="22969.353349" electricity_abs="0"/>
    </tripinfo>
    <tripinfo id="14.0" depart="0.00" departLane="483872216_1" departPos="5.10" departSpeed="0.00" departDelay="0.00" arrival="29.00" arrivalLane="43118733#0_2" arrivalPos="0.50" arrivalSpeed="8.49" duration="29.00" routeLength="203.43" waitingTime="0.00" waitingCount="0" stopTime="0.00" timeLoss="6.34" rerouteNo="0" devices="tripinfo_14.0 emissions_14.0" vType="DEFAULT_VEHTYPE" speedFactor="1.03" vaporized="">
        <emissions CO_abs="1817.713993" CO2_abs="79024.983794" HC_abs="10.117449" PMx_abs="1.435921" NOx_abs="33.038984" fuel_abs="25205.640391" electricity_abs="0"/>
    </tripinfo>
    <tripinfo id="15.0" depart="0.00" departLane="480094740#2_1" departPos="1.25" departSpeed="0.00" departDelay="0.00" arrival="35.00" arrivalLane="43154948_1" arrivalPos="0.67" arrivalSpeed="6.88" duration="35.00" routeLength="212.42" waitingTime="0.00" waitingCount="0" stopTime="0.00" timeLoss="4.71" rerouteNo="0" devices="tripinfo_15.0 emissions_15.0" vType="DEFAULT_VEHTYPE" speedFactor="0.83" vaporized="">
        <emissions CO_abs="1938.696504" CO2_abs="73128.406414" HC_abs="10.489913" PMx_abs="1.166635" NOx_abs="29.656060" fuel_abs="23325.217338" electricity_abs="0"/>
    </tripinfo>
    <personinfo id="13" depart="26.00" type="DEFAULT_PEDTYPE" speedFactor="1.17" duration="11.00" waitingTime="0.00" timeLoss="1.73" traveltime="11.00">
        <walk depart="26.00" departPos="0.00" arrival="37.00" arrivalPos="1.29" duration="11.00" routeLength="15.09" timeLoss="1.73" maxSpeed="1.63"/>
    </personinfo>
    <tripinfo id="18.0" depart="0.00" departLane="480094741_1" departPos="5.10" departSpeed="0.00" departDelay="0.00" arrival="40.00" arrivalLane="43118733#1_2" arrivalPos="1.15" arrivalSpeed="7.82" duration="40.00" routeLength="218.61" waitingTime="3.00" waitingCount="1" stopTime="0.00" timeLoss="11.99" rerouteNo="0" devices="tripinfo_18.0 emissions_18.0" vType="DEFAULT_VEHTYPE" speedFactor="0.89" vaporized="">
        <emissions CO_abs="2794.030248" CO2_abs="93821.906861" HC_abs="14.878280" PMx_abs="1.658041" NOx_abs="38.987406" fuel_abs="29925.687256" electricity_abs="0"/>
    </tripinfo>
    <tripinfo id="20.0" depart="0.00" departLane="43365536_1" departPos="4.41" departSpeed="0.00" departDelay="0.00" arrival="40.00" arrivalLane="-230503369#1_1" arrivalPos="3.73" arrivalSpeed="7.21" duration="40.00" routeLength="234.41" waitingTime="2.00" waitingCount="1" stopTime="0.00" timeLoss="9.38" rerouteNo="0" devices="tripinfo_20.0 emissions_20.0" vType="DEFAULT_VEHTYPE" speedFactor="0.94" vaporized="">
        <emissions CO_abs="2756.729583" CO2_abs="102034.015110" HC_abs="14.885701" PMx_abs="1.701024" NOx_abs="41.761663" fuel_abs="32544.978509" electricity_abs="0"/>
    </tripinfo>
    <tripinfo id="22.0" depart="0.00" departLane="-483872216_1" departPos="5.10" departSpeed="0.00" departDelay="0.00" arrival="48.00" arrivalLane="195406732#1_1" arrivalPos="22.77" arrivalSpeed="6.88" duration="48.00" routeLength="277.22" waitingTime="0.00" waitingCount="0" stopTime="0.00" timeLoss="9.56" rerouteNo="0" devices="tripinfo_22.0 emissions_22.0" vType="DEFAULT_VEHTYPE" speedFactor="0.86" vaporized="">
        <emissions CO_abs="2794.232266" CO2_abs="107608.479209" HC_abs="15.191003" PMx_abs="1.820032" NOx_abs="44.305323" fuel_abs="34322.912387" electricity_abs="0"/>
    </tripinfo>
    <tripinfo id="0.0" depart="0.00" departLane="43118737#2_1" departPos="0.20" departSpeed="0.00" departDelay="0.00" arrival="51.00" arrivalLane="-230503369#0_1" arrivalPos="0.20" arrivalSpeed="8.32" duration="51.00" routeLength="386.83" waitingTime="0.00" waitingCount="0" stopTime="0.00" timeLoss="8.21" rerouteNo="0" devices="tripinfo_0.0 emissions_0.0" vType="DEFAULT_VEHTYPE" speedFactor="1.06" vaporized="">
        <emissions CO_abs="2638.541198" CO2_abs="131062.235934" HC_abs="15.020148" PMx_abs="2.072168" NOx_abs="52.711364" fuel_abs="41803.449833" electricity_abs="0"/>
    </tripinfo>
    <personinfo id="4" depart="8.00" type="DEFAULT_PEDTYPE" speedFactor="0.83" duration="49.00" waitingTime="0.00" timeLoss="6.59" traveltime="49.00">
        <walk depart="8.00" departPos="0.00" arrival="57.00" arrivalPos="9.39" duration="49.00" routeLength="48.64" timeLoss="6.59" maxSpeed="1.15"/>
    </personinfo>
    <personinfo id="7" depart="14.00" type="DEFAULT_PEDTYPE" speedFactor="0.95" duration="72.00" waitingTime="0.00" timeLoss="29.17" traveltime="72.00">
        <walk depart="14.00" departPos="0.00" arrival="86.00" arrivalPos="0.10" duration="72.00" routeLength="56.44" timeLoss="29.17" maxSpeed="1.32"/>
    </personinfo>
    <personinfo id="18" depart="36.00" type="DEFAULT_PEDTYPE" speedFactor="1.18" duration="52.00" waitingTime="0.00" timeLoss="39.68" traveltime="52.00">
        <walk depart="36.00" departPos="0.00" arrival="88.00" arrivalPos="0.57" duration="52.00" routeLength="20.19" timeLoss="39.68" maxSpeed="1.64"/>
    </personinfo>
    <personinfo id="38" depart="76.00" type="DEFAULT_PEDTYPE" speedFactor="1.14" duration="13.00" waitingTime="0.00" timeLoss="3.60" traveltime="13.00">
        <walk depart="76.00" departPos="0.00" arrival="89.00" arrivalPos="2.49" duration="13.00" routeLength="14.91" timeLoss="3.60" maxSpeed="1.59"/>
    </personinfo>
    <personinfo id="31" depart="62.00" type="DEFAULT_PEDTYPE" speedFactor="0.85" duration="44.00" waitingTime="0.00" timeLoss="19.32" traveltime="44.00">
        <walk depart="62.00" departPos="0.00" arrival="106.00" arrivalPos="2.62" duration="44.00" routeLength="29.30" timeLoss="19.32" maxSpeed="1.19"/>
    </personinfo>
    <personinfo id="3" depart="6.00" type="DEFAULT_PEDTYPE" speedFactor="0.89" duration="101.00" waitingTime="0.00" timeLoss="65.96" traveltime="101.00">
        <walk depart="6.00" departPos="0.00" arrival="107.00" arrivalPos="0.10" duration="101.00" routeLength="43.29" timeLoss="65.96" maxSpeed="1.24"/>
    </personinfo>
    <personinfo id="50" depart="100.00" type="DEFAULT_PEDTYPE" speedFactor="1.04" duration="20.00" waitingTime="0.00" timeLoss="2.56" traveltime="20.00">
        <walk depart="100.00" departPos="0.00" arrival="120.00" arrivalPos="0.07" duration="20.00" routeLength="25.19" timeLoss="2.56" maxSpeed="1.44"/>
    </personinfo>
    <personinfo id="6" depart="12.00" type="DEFAULT_PEDTYPE" speedFactor="0.92" duration="111.00" waitingTime="0.00" timeLoss="22.43" traveltime="111.00">
        <walk depart="12.00" departPos="0.00" arrival="123.00" arrivalPos="9.48" duration="111.00" routeLength="112.83" timeLoss="22.43" maxSpeed="1.27"/>
    </personinfo>
    <tripinfo id="27.0" depart="120.00" departLane="43118738#0_1" departPos="0.20" departSpeed="0.00" departDelay="0.00" arrival="129.00" arrivalLane="43118733#0_1" arrivalPos="0.50" arrivalSpeed="6.99" duration="9.00" routeLength="52.31" waitingTime="0.00" waitingCount="0" stopTime="0.00" timeLoss="2.25" rerouteNo="0" devices="tripinfo_27.0 emissions_27.0" vType="DEFAULT_VEHTYPE" speedFactor="0.93" vaporized="">
        <emissions CO_abs="664.155574" CO2_abs="24581.939475" HC_abs="3.597992" PMx_abs="0.471561" NOx_abs="10.473606" fuel_abs="7840.634737" electricity_abs="0"/>
    </tripinfo>
    <personinfo id="0" depart="0.00" type="DEFAULT_PEDTYPE" speedFactor="1.03" duration="132.00" waitingTime="0.00" timeLoss="18.66" traveltime="132.00">
        <walk depart="0.00" departPos="0.00" arrival="132.00" arrivalPos="8.60" duration="132.00" routeLength="161.56" timeLoss="18.66" maxSpeed="1.43"/>
    </personinfo>
    <tripinfo id="33.0" depart="120.00" departLane="230503369#2_1" departPos="5.10" departSpeed="0.00" departDelay="0.00" arrival="134.00" arrivalLane="-230503369#0_1" arrivalPos="0.20" arrivalSpeed="8.88" duration="14.00" routeLength="64.18" waitingTime="0.00" waitingCount="0" stopTime="0.00" timeLoss="4.96" rerouteNo="0" devices="tripinfo_33.0 emissions_33.0" vType="DEFAULT_VEHTYPE" speedFactor="1.01" vaporized="">
        <emissions CO_abs="1108.123509" CO2_abs="42026.814441" HC_abs="6.027574" PMx_abs="0.806940" NOx_abs="17.922897" fuel_abs="13404.818268" electricity_abs="0"/>
    </tripinfo>
    <personinfo id="10" depart="20.00" type="DEFAULT_PEDTYPE" speedFactor="1.18" duration="126.00" waitingTime="0.00" timeLoss="68.70" traveltime="126.00">
        <walk depart="20.00" departPos="0.00" arrival="146.00" arrivalPos="0.62" duration="126.00" routeLength="93.79" timeLoss="68.70" maxSpeed="1.64"/>
    </personinfo>
    <tripinfo id="25.0" depart="120.00" departLane="23715308#0_1" departPos="0.20" departSpeed="0.00" departDelay="0.00" arrival="146.00" arrivalLane="111971057#1_1" arrivalPos="3.20" arrivalSpeed="6.93" duration="26.00" routeLength="112.20" waitingTime="5.00" waitingCount="1" stopTime="0.00" timeLoss="14.64" rerouteNo="0" devices="tripinfo_25.0 emissions_25.0" vType="DEFAULT_VEHTYPE" speedFactor="1.12" vaporized="">
        <emissions CO_abs="2571.225531" CO2_abs="75729.460904" HC_abs="13.480955" PMx_abs="1.557774" NOx_abs="32.871689" fuel_abs="24154.825147" electricity_abs="0"/>
    </tripinfo>
    <tripinfo id="26.0" depart="120.00" departLane="230506725_1" departPos="0.20" departSpeed="0.00" departDelay="0.00" arrival="148.00" arrivalLane="498958807#1_1" arrivalPos="31.55" arrivalSpeed="7.80" duration="28.00" routeLength="181.60" waitingTime="0.00" waitingCount="0" stopTime="0.00" timeLoss="6.56" rerouteNo="0" devices="tripinfo_26.0 emissions_26.0" vType="DEFAULT_VEHTYPE" speedFactor="0.99" vaporized="">
        <emissions CO_abs="1846.659966" CO2_abs="81268.152237" HC_abs="10.275463" PMx_abs="1.341890" NOx_abs="33.153646" fuel_abs="25921.251354" electricity_abs="0"/>
    </tripinfo>
    <personinfo id="24" depart="48.00" type="DEFAULT_PEDTYPE" speedFactor="1.04" duration="103.00" waitingTime="0.00" timeLoss="14.47" traveltime="103.00">
        <walk depart="48.00" departPos="0.00" arrival="151.00" arrivalPos="0.10" duration="103.00" routeLength="127.60" timeLoss="14.47" maxSpeed="1.44"/>
    </personinfo>
    <personinfo id="19" depart="38.00" type="DEFAULT_PEDTYPE" speedFactor="1.10" duration="113.00" waitingTime="0.00" timeLoss="16.73" traveltime="113.00">
        <walk depart="38.00" departPos="0.00" arrival="151.00" arrivalPos="4.07" duration="113.00" routeLength="147.38" timeLoss="16.73" maxSpeed="1.53"/>
    </personinfo>
    <tripinfo id="30.0" depart="120.00" departLane="817967122_1" departPos="4.36" departSpeed="0.00" departDelay="0.00" arrival="153.00" arrivalLane="43118734_2" arrivalPos="0.20" arrivalSpeed="9.73" duration="33.00" routeLength="139.59" waitingTime="9.00" waitingCount="1" stopTime="0.00" timeLoss="19.07" rerouteNo="0" devices="tripinfo_30.0 emissions_30.0" vType="DEFAULT_VEHTYPE" speedFactor="1.16" vaporized="">
        <emissions CO_abs="3448.324097" CO2_abs="98007.073362" HC_abs="17.982107" PMx_abs="1.950963" NOx_abs="41.899345" fuel_abs="31260.708922" electricity_abs="0"/>
    </tripinfo>
    <personinfo id="62" depart="124.00" type="DEFAULT_PEDTYPE" speedFactor="1.03" duration="30.00" waitingTime="0.00" timeLoss="4.50" traveltime="30.00">
        <walk depart="124.00" departPos="0.00" arrival="154.00" arrivalPos="0.10" duration="30.00" routeLength="36.64" timeLoss="4.50" maxSpeed="1.44"/>
    </personinfo>
    <tripinfo id="32.0" depart="120.00" departLane="483872216_1" departPos="5.10" departSpeed="0.00" departDelay="0.00" arrival="154.00" arrivalLane="4369049#2_1" arrivalPos="13.94" arrivalSpeed="8.19" duration="34.00" routeLength="174.75" waitingTime="7.00" waitingCount="1" stopTime="0.00" timeLoss="14.73" rerouteNo="0" devices="tripinfo_32.0 emissions_32.0" vType="DEFAULT_VEHTYPE" speedFactor="1.02" vaporized="">
        <emissions CO_abs="2973.602724" CO2_abs="90357.393872" HC_abs="15.626642" PMx_abs="1.684349" NOx_abs="37.978138" fuel_abs="28820.727631" electricity_abs="0"/>
    </tripinfo>
    <personinfo id="9" depart="18.00" type="DEFAULT_PEDTYPE" speedFactor="0.93" duration="139.00" waitingTime="0.00" timeLoss="17.14" traveltime="139.00">
        <walk depart="18.00" departPos="0.00" arrival="157.00" arrivalPos="0.10" duration="139.00" routeLength="157.62" timeLoss="17.14" maxSpeed="1.29"/>
    </personinfo>
    <tripinfo id="29.0" depart="120.00" departLane="1065112866_1" departPos="0.20" departSpeed="0.00" departDelay="0.00" arrival="159.00" arrivalLane="23715305#1_1" arrivalPos="1.07" arrivalSpeed="7.24" duration="39.00" routeLength="144.85" waitingTime="12.00" waitingCount="2" stopTime="0.00" timeLoss="21.12" rerouteNo="0" devices="tripinfo_29.0 emissions_29.0" vType="DEFAULT_VEHTYPE" speedFactor="0.94" vaporized="">
        <emissions CO_abs="3918.121460" CO2_abs="95667.002809" HC_abs="20.062077" PMx_abs="1.965568" NOx_abs="41.363543" fuel_abs="30514.584065" electricity_abs="0"/>
    </tripinfo>
    <personinfo id="56" depart="112.00" type="DEFAULT_PEDTYPE" speedFactor="0.96" duration="53.00" waitingTime="0.00" timeLoss="6.40" traveltime="53.00">
        <walk depart="112.00" departPos="0.00" arrival="165.00" arrivalPos="30.49" duration="53.00" routeLength="61.81" timeLoss="6.40" maxSpeed="1.33"/>
    </personinfo>
    <tripinfo id="3.0" depart="120.00" departLane="49796163_1" departPos="2.26" departSpeed="0.00" departDelay="0.00" arrival="165.00" arrivalLane="-4256546_1" arrivalPos="10.09" arrivalSpeed="8.26" duration="45.00" routeLength="304.15" waitingTime="0.00" waitingCount="0" stopTime="0.00" timeLoss="7.59" rerouteNo="0" devices="tripinfo_3.0 emissions_3.0" vType="DEFAULT_VEHTYPE" speedFactor="0.94" vaporized="">
        <emissions CO_abs="2328.294624" CO2_abs="100414.197240" HC_abs="12.890943" PMx_abs="1.576980" NOx_abs="40.464331" fuel_abs="32028.184429" electricity_abs="0"/>
    </tripinfo>
    <personinfo id="37" depart="74.00" type="DEFAULT_PEDTYPE" speedFactor="0.90" duration="93.00" waitingTime="0.00" timeLoss="13.13" traveltime="93.00">
        <walk depart="74.00" departPos="0.00" arrival="167.00" arrivalPos="0.15" duration="93.00" routeLength="99.72" timeLoss="13.13" maxSpeed="1.25"/>
    </personinfo>
    <personinfo id="8" depart="16.00" type="DEFAULT_PEDTYPE" speedFactor="1.13" duration="162.00" waitingTime="0.00" timeLoss="98.81" traveltime="162.00">
        <walk depart="16.00" departPos="0.00" arrival="178.00" arrivalPos="0.17" duration="162.00" routeLength="99.33" timeLoss="98.81" maxSpeed="1.57"/>
    </personinfo>
    <personinfo id="22" depart="44.00" type="DEFAULT_PEDTYPE" speedFactor="0.96" duration="135.00" waitingTime="0.00" timeLoss="106.18" traveltime="135.00">
        <walk depart="44.00" departPos="0.00" arrival="179.00" arrivalPos="0.17" duration="135.00" routeLength="38.31" timeLoss="106.18" maxSpeed="1.33"/>
    </personinfo>
    <personinfo id="21" depart="42.00" type="DEFAULT_PEDTYPE" speedFactor="1.03" duration="138.00" waitingTime="0.00" timeLoss="19.38" traveltime="138.00">
        <walk depart="42.00" departPos="0.00" arrival="180.00" arrivalPos="0.10" duration="138.00" routeLength="169.76" timeLoss="19.38" maxSpeed="1.43"/>
    </personinfo>
    <personinfo id="77" depart="154.00" type="DEFAULT_PEDTYPE" speedFactor="1.06" duration="27.00" waitingTime="0.00" timeLoss="4.81" traveltime="27.00">
        <walk depart="154.00" departPos="0.00" arrival="181.00" arrivalPos="0.10" duration="27.00" routeLength="32.56" timeLoss="4.81" maxSpeed="1.47"/>
    </personinfo>
    <personinfo id="42" depart="84.00" type="DEFAULT_PEDTYPE" speedFactor="1.12" duration="98.00" waitingTime="0.00" timeLoss="20.74" traveltime="98.00">
        <walk depart="84.00" departPos="0.00" arrival="182.00" arrivalPos="0.10" duration="98.00" routeLength="120.11" timeLoss="20.74" maxSpeed="1.55"/>
    </personinfo>
    <tripinfo id="24.0" depart="120.00" departLane="43118737#1_1" departPos="0.11" departSpeed="0.00" departDelay="0.00" arrival="183.00" arrivalLane="23715304#2_2" arrivalPos="0.20" arrivalSpeed="7.75" duration="63.00" routeLength="385.91" waitingTime="7.00" waitingCount="2" stopTime="0.00" timeLoss="22.22" rerouteNo="0" devices="tripinfo_24.0 emissions_24.0" vType="DEFAULT_VEHTYPE" speedFactor="1.09" vaporized="">
        <emissions CO_abs="4133.985838" CO2_abs="154283.095285" HC_abs="22.395333" PMx_abs="2.769810" NOx_abs="64.129441" fuel_abs="49210.228968" electricity_abs="0"/>
    </tripinfo>
    <personinfo id="25" depart="50.00" type="DEFAULT_PEDTYPE" speedFactor="1.04" duration="138.00" waitingTime="0.00" timeLoss="62.20" traveltime="138.00">
        <walk depart="50.00" departPos="0.00" arrival="188.00" arrivalPos="1.66" duration="138.00" routeLength="109.84" timeLoss="62.20" maxSpeed="1.45"/>
    </personinfo>
    <personinfo id="11" depart="22.00" type="DEFAULT_PEDTYPE" speedFactor="1.15" duration="167.00" waitingTime="0.00" timeLoss="90.86" traveltime="167.00">
        <walk depart="22.00" departPos="0.00" arrival="189.00" arrivalPos="4.36" duration="167.00" routeLength="122.08" timeLoss="90.86" maxSpeed="1.60"/>
    </personinfo>
    <personinfo id="48" depart="96.00" type="DEFAULT_PEDTYPE" speedFactor="0.91" duration="94.00" waitingTime="0.00" timeLoss="24.61" traveltime="94.00">
        <walk depart="96.00" departPos="0.00" arrival="190.00" arrivalPos="4.37" duration="94.00" routeLength="88.14" timeLoss="24.61" maxSpeed="1.27"/>
    </personinfo>
    <personinfo id="23" depart="46.00" type="DEFAULT_PEDTYPE" speedFactor="1.09" duration="144.00" waitingTime="0.00" timeLoss="19.95" traveltime="144.00">
        <walk depart="46.00" departPos="0.00" arrival="190.00" arrivalPos="0.10" duration="144.00" routeLength="188.13" timeLoss="19.95" maxSpeed="1.52"/>
    </personinfo>
    <personinfo id="14" depart="28.00" type="DEFAULT_PEDTYPE" speedFactor="0.99" duration="163.00" waitingTime="0.00" timeLoss="22.97" traveltime="163.00">
        <walk depart="28.00" departPos="0.00" arrival="191.00" arrivalPos="0.10" duration="163.00" routeLength="193.47" timeLoss="22.97" maxSpeed="1.38"/>
    </personinfo>
    <personinfo id="33" depart="66.00" type="DEFAULT_PEDTYPE" speedFactor="1.02" duration="125.00" waitingTime="0.00" timeLoss="20.21" traveltime="125.00">
        <walk depart="66.00" departPos="0.00" arrival="191.00" arrivalPos="18.17" duration="125.00" routeLength="147.99" timeLoss="20.21" maxSpeed="1.41"/>
    </personinfo>
    <personinfo id="15" depart="30.00" type="DEFAULT_PEDTYPE" speedFactor="1.02" duration="161.00" waitingTime="0.00" timeLoss="61.92" traveltime="161.00">
        <walk depart="30.00" departPos="0.00" arrival="191.00" arrivalPos="3.68" duration="161.00" routeLength="140.32" timeLoss="61.92" maxSpeed="1.42"/>
    </personinfo>
    <personinfo id="58" depart="116.00" type="DEFAULT_PEDTYPE" speedFactor="1.03" duration="79.00" waitingTime="0.00" timeLoss="13.21" traveltime="79.00">
        <walk depart="116.00" departPos="0.00" arrival="195.00" arrivalPos="0.10" duration="79.00" routeLength="94.34" timeLoss="13.21" maxSpeed="1.43"/>
    </personinfo>
    <personinfo id="35" depart="70.00" type="DEFAULT_PEDTYPE" speedFactor="1.00" duration="126.00" waitingTime="0.00" timeLoss="55.60" traveltime="126.00">
        <walk depart="70.00" departPos="0.00" arrival="196.00" arrivalPos="0.10" duration="126.00" routeLength="98.09" timeLoss="55.60" maxSpeed="1.39"/>
    </personinfo>
    <personinfo id="2" depart="4.00" type="DEFAULT_PEDTYPE" speedFactor="1.05" duration="195.00" waitingTime="0.00" timeLoss="110.41" traveltime="195.00">
        <walk depart="4.00" departPos="0.00" arrival="199.00" arrivalPos="4.22" duration="195.00" routeLength="123.03" timeLoss="110.41" maxSpeed="1.45"/>
    </personinfo>
    <personinfo id="70" depart="140.00" type="DEFAULT_PEDTYPE" speedFactor="1.01" duration="62.00" waitingTime="0.00" timeLoss="30.96" traveltime="62.00">
        <walk depart="140.00" departPos="0.00" arrival="202.00" arrivalPos="0.10" duration="62.00" routeLength="43.42" timeLoss="30.96" maxSpeed="1.40"/>
    </personinfo>
    <personinfo id="72" depart="144.00" type="DEFAULT_PEDTYPE" speedFactor="1.02" duration="61.00" waitingTime="0.00" timeLoss="7.72" traveltime="61.00">
        <walk depart="144.00" departPos="0.00" arrival="205.00" arrivalPos="15.22" duration="61.00" routeLength="75.24" timeLoss="7.72" maxSpeed="1.41"/>
    </personinfo>
    <personinfo id="53" depart="106.00" type="DEFAULT_PEDTYPE" speedFactor="0.97" duration="99.00" waitingTime="0.00" timeLoss="62.26" traveltime="99.00">
        <walk depart="106.00" departPos="0.00" arrival="205.00" arrivalPos="11.38" duration="99.00" routeLength="49.65" timeLoss="62.26" maxSpeed="1.35"/>
    </personinfo>
    <personinfo id="54" depart="108.00" type="DEFAULT_PEDTYPE" speedFactor="0.94" duration="98.00" waitingTime="0.00" timeLoss="65.20" traveltime="98.00">
        <walk depart="108.00" departPos="0.00" arrival="206.00" arrivalPos="8.58" duration="98.00" routeLength="42.83" timeLoss="65.20" maxSpeed="1.31"/>
    </personinfo>
    <personinfo id="27" depart="54.00" type="DEFAULT_PEDTYPE" speedFactor="1.00" duration="154.00" waitingTime="0.00" timeLoss="26.74" traveltime="154.00">
        <walk depart="54.00" departPos="0.00" arrival="208.00" arrivalPos="23.54" duration="154.00" routeLength="176.29" timeLoss="26.74" maxSpeed="1.39"/>
    </personinfo>
    <personinfo id="101" depart="202.00" type="DEFAULT_PEDTYPE" speedFactor="1.00" duration="9.00" waitingTime="0.00" timeLoss="1.88" traveltime="9.00">
        <walk depart="202.00" departPos="0.00" arrival="211.00" arrivalPos="3.33" duration="9.00" routeLength="9.93" timeLoss="1.88" maxSpeed="1.39"/>
    </personinfo>
    <tripinfo id="28.0" depart="120.00" departLane="111971057#0_1" departPos="0.24" departSpeed="0.00" departDelay="0.00" arrival="211.00" arrivalLane="43154948_1" arrivalPos="0.67" arrivalSpeed="7.34" duration="91.00" routeLength="282.32" waitingTime="34.00" waitingCount="4" stopTime="0.00" timeLoss="52.95" rerouteNo="0" devices="tripinfo_28.0 emissions_28.0" vType="DEFAULT_VEHTYPE" speedFactor="0.88" vaporized="">
        <emissions CO_abs="9479.996616" CO2_abs="221096.329723" HC_abs="48.307514" PMx_abs="4.654387" NOx_abs="96.381820" fuel_abs="70522.495204" electricity_abs="0"/>
    </tripinfo>
    <personinfo id="82" depart="164.00" type="DEFAULT_PEDTYPE" speedFactor="1.06" duration="54.00" waitingTime="0.00" timeLoss="9.93" traveltime="54.00">
        <walk depart="164.00" departPos="0.00" arrival="218.00" arrivalPos="2.11" duration="54.00" routeLength="65.18" timeLoss="9.93" maxSpeed="1.48"/>
    </personinfo>
    <personinfo id="81" depart="162.00" type="DEFAULT_PEDTYPE" speedFactor="1.10" duration="61.00" waitingTime="0.00" timeLoss="12.62" traveltime="61.00">
        <walk depart="162.00" departPos="0.00" arrival="223.00" arrivalPos="2.54" duration="61.00" routeLength="73.73" timeLoss="12.62" maxSpeed="1.52"/>
    </personinfo>
    <personinfo id="36" depart="72.00" type="DEFAULT_PEDTYPE" speedFactor="1.00" duration="154.00" waitingTime="0.00" timeLoss="22.27" traveltime="154.00">
        <walk depart="72.00" departPos="0.00" arrival="226.00" arrivalPos="0.10" duration="154.00" routeLength="182.22" timeLoss="22.27" maxSpeed="1.38"/>
    </personinfo>
    <personinfo id="75" depart="150.00" type="DEFAULT_PEDTYPE" speedFactor="0.92" duration="85.00" waitingTime="0.00" timeLoss="11.27" traveltime="85.00">
        <walk depart="150.00" departPos="0.00" arrival="235.00" arrivalPos="0.10" duration="85.00" routeLength="94.36" timeLoss="11.27" maxSpeed="1.28"/>
    </personinfo>
    <personinfo id="45" depart="90.00" type="DEFAULT_PEDTYPE" speedFactor="0.94" duration="147.00" waitingTime="0.00" timeLoss="80.51" traveltime="147.00">
        <walk depart="90.00" departPos="0.00" arrival="237.00" arrivalPos="0.10" duration="147.00" routeLength="86.59" timeLoss="80.51" maxSpeed="1.30"/>
    </personinfo>
    <personinfo id="64" depart="128.00" type="DEFAULT_PEDTYPE" speedFactor="1.02" duration="115.00" waitingTime="0.00" timeLoss="15.01" traveltime="115.00">
        <walk depart="128.00" departPos="0.00" arrival="243.00" arrivalPos="0.10" duration="115.00" routeLength="141.23" timeLoss="15.01" maxSpeed="1.41"/>
    </personinfo>
    <tripinfo id="40.0" depart="240.00" departLane="4256546_1" departPos="5.10" departSpeed="0.00" departDelay="0.00" arrival="251.00" arrivalLane="230503369#1_1" arrivalPos="3.73" arrivalSpeed="6.82" duration="11.00" routeLength="44.18" waitingTime="0.00" waitingCount="0" stopTime="0.00" timeLoss="4.04" rerouteNo="0" devices="tripinfo_40.0 emissions_40.0" vType="DEFAULT_VEHTYPE" speedFactor="1.02" vaporized="">
        <emissions CO_abs="911.218524" CO2_abs="30823.829145" HC_abs="4.873915" PMx_abs="0.632854" NOx_abs="13.427113" fuel_abs="9831.543322" electricity_abs="0"/>
    </tripinfo>
    <tripinfo id="41.0" depart="240.00" departLane="43118733#1_1" departPos="1.15" departSpeed="0.00" departDelay="0.00" arrival="253.00" arrivalLane="49796163_1" arrivalPos="2.26" arrivalSpeed="9.16" duration="13.00" routeLength="96.90" waitingTime="0.00" waitingCount="0" stopTime="0.00" timeLoss="2.35" rerouteNo="0" devices="tripinfo_41.0 emissions_41.0" vType="DEFAULT_VEHTYPE" speedFactor="1.06" vaporized="">
        <emissions CO_abs="816.404917" CO2_abs="36574.055678" HC_abs="4.567361" PMx_abs="0.649913" NOx_abs="15.188312" fuel_abs="11665.584288" electricity_abs="0"/>
    </tripinfo>
    <personinfo id="127" depart="254.00" type="DEFAULT_PEDTYPE" speedFactor="1.08" duration="8.00" waitingTime="0.00" timeLoss="1.55" traveltime="8.00">
        <walk depart="254.00" departPos="0.00" arrival="262.00" arrivalPos="0.10" duration="8.00" routeLength="9.65" timeLoss="1.55" maxSpeed="1.50"/>
    </personinfo>
    <personinfo id="112" depart="224.00" type="DEFAULT_PEDTYPE" speedFactor="0.89" duration="41.00" waitingTime="0.00" timeLoss="9.30" traveltime="41.00">
        <walk depart="224.00" departPos="0.00" arrival="265.00" arrivalPos="0.64" duration="41.00" routeLength="39.05" timeLoss="9.30" maxSpeed="1.23"/>
    </personinfo>
    <personinfo id="51" depart="102.00" type="DEFAULT_PEDTYPE" speedFactor="1.02" duration="168.00" waitingTime="0.00" timeLoss="87.84" traveltime="168.00">
        <walk depart="102.00" departPos="0.00" arrival="270.00" arrivalPos="0.10" duration="168.00" routeLength="113.79" timeLoss="87.84" maxSpeed="1.42"/>
    </personinfo>
    <personinfo id="79" depart="158.00" type="DEFAULT_PEDTYPE" speedFactor="0.91" duration="113.00" waitingTime="0.00" timeLoss="69.48" traveltime="113.00">